/*--------------------------------*- C++ -*----------------------------------*\
  =========                 |
  \\      /  F ield         | OpenFOAM: The Open Source CFD Toolbox
   \\    /   O peration     | Website:  https://openfoam.org
    \\  /    A nd           | Version:  7
     \\/     M anipulation  |
\*---------------------------------------------------------------------------*/
FoamFile
{
    version     2.0;
    format      ascii;
    class       volScalarField;
    location    "0";
    object      epss;
}
// * * * * * * * * * * * * * * * * * * * * * * * * * * * * * * * * * * * * * //

dimensions      [0 0 0 0 0 0 0];

internalField   nonuniform List<scalar> 
196256
(
0.354854
0.362102
0.278981
0.324855
0.384131
0.379624
0.320767
0.461496
0.363618
0.430226
0.371368
0.405673
0.384429
0.346994
0.479295
0.421943
0.343196
0.382965
0.350233
0.450727
0.352135
0.396755
0.371613
0.428166
0.369968
0.370701
0.345128
0.374689
0.451072
0.325211
0.482015
0.451515
0.390979
0.383141
0.445732
0.480682
0.423441
0.445252
0.470602
0.406951
0.369419
0.339804
0.482171
0.410896
0.384481
0.391137
0.393937
0.48485
0.335483
0.367194
0.352991
0.432577
0.453493
0.362346
0.391612
0.320667
0.459858
0.444662
0.434292
0.441791
0.372139
0.377438
0.464175
0.428059
0.412568
0.408434
0.462885
0.410166
0.427146
0.405229
0.369765
0.331838
0.448479
0.41829
0.450232
0.479891
0.367173
0.424858
0.431695
0.418312
0.321535
0.417595
0.350174
0.431421
0.342205
0.417552
0.359702
0.32598
0.389336
0.512565
0.472945
0.337299
0.340214
0.400695
0.407462
0.340851
0.399245
0.371499
0.352645
0.45389
0.423507
0.37002
0.36543
0.414898
0.438914
0.392976
0.521763
0.442159
0.435655
0.45577
0.182471
0.42203
0.380817
0.41558
0.405528
0.413468
0.408141
0.444872
0.350657
0.448943
0.437174
0.413925
0.362144
0.412172
0.351378
0.385105
0.281606
0.431995
0.286744
0.300082
0.431682
0.3944
0.357155
0.311815
0.320087
0.417631
0.456381
0.425857
0.326529
0.378141
0.405324
0.45249
0.419855
0.344098
0.371876
0.437368
0.32064
0.435527
0.330206
0.355073
0.479649
0.356692
0.389636
0.412189
0.45444
0.363498
0.337169
0.446864
0.420248
0.495949
0.426093
0.395895
0.334124
0.413699
0.44212
0.4074
0.438036
0.391034
0.356233
0.404795
0.401525
0.248326
0.4053
0.362407
0.469298
0.46327
0.387441
0.444617
0.420682
0.394257
0.352084
0.3535
0.352286
0.374658
0.416802
0.432316
0.390708
0.420077
0.492952
0.291386
0.461861
0.440387
0.459979
0.295864
0.466187
0.301246
0.351431
0.516148
0.355163
0.417531
0.44478
0.440884
0.413834
0.311917
0.413324
0.357951
0.42572
0.444761
0.417499
0.464781
0.442906
0.39928
0.438553
0.435081
0.430457
0.371684
0.310211
0.387919
0.39902
0.40679
0.338392
0.399205
0.379027
0.403407
0.366104
0.348052
0.431562
0.337793
0.3688
0.39096
0.368916
0.411262
0.414119
0.428596
0.433271
0.429897
0.418163
0.432589
0.342293
0.470968
0.488277
0.362496
0.408433
0.431889
0.422704
0.448887
0.397056
0.472212
0.324034
0.44306
0.316994
0.352551
0.437325
0.351329
0.40294
0.340222
0.428167
0.339365
0.324211
0.364561
0.347146
0.443447
0.417301
0.390611
0.328701
0.452658
0.358378
0.329903
0.338316
0.416923
0.391606
0.35467
0.424648
0.469816
0.420949
0.499994
0.432179
0.437946
0.388552
0.404101
0.387606
0.397744
0.345137
0.485041
0.391966
0.457009
0.414923
0.481241
0.281733
0.44961
0.400319
0.356059
0.363006
0.336319
0.465029
0.406649
0.391476
0.395904
0.349639
0.428952
0.412698
0.425541
0.385438
0.406623
0.35444
0.413212
0.378494
0.374059
0.33191
0.41973
0.445256
0.315089
0.433011
0.44229
0.345736
0.448495
0.327362
0.394925
0.311155
0.395597
0.449809
0.396798
0.41839
0.414707
0.362988
0.386668
0.427877
0.465045
0.24069
0.397706
0.39748
0.464767
0.40588
0.286302
0.354041
0.463051
0.404793
0.420548
0.279745
0.362717
0.390605
0.47378
0.456307
0.458624
0.404071
0.357447
0.317782
0.363507
0.393799
0.455556
0.484788
0.466633
0.517641
0.385608
0.316412
0.44106
0.441557
0.41833
0.422631
0.361742
0.329777
0.329415
0.374269
0.381008
0.40882
0.358437
0.393265
0.314765
0.470179
0.471461
0.366797
0.388104
0.442093
0.398289
0.452659
0.353782
0.438098
0.364007
0.393305
0.401847
0.347098
0.38971
0.439684
0.423243
0.344801
0.336921
0.365622
0.346017
0.341003
0.45776
0.443446
0.379953
0.405837
0.423716
0.444184
0.421586
0.428234
0.361744
0.379245
0.343092
0.484505
0.432131
0.427113
0.373933
0.351971
0.376595
0.401636
0.463103
0.398523
0.399925
0.464809
0.367511
0.389023
0.41985
0.413415
0.313072
0.399014
0.429098
0.370757
0.415846
0.35646
0.43195
0.444692
0.451975
0.33716
0.419722
0.373658
0.411949
0.344079
0.381302
0.487927
0.432598
0.414398
0.355446
0.419375
0.516851
0.400229
0.355539
0.440269
0.378111
0.358874
0.403682
0.466453
0.430522
0.454354
0.316173
0.322797
0.350716
0.390908
0.308862
0.400714
0.330382
0.388033
0.432813
0.417487
0.378433
0.365379
0.458192
0.398837
0.487999
0.407533
0.340977
0.412288
0.398763
0.382691
0.416925
0.453629
0.328504
0.329837
0.41047
0.322265
0.37393
0.369097
0.422827
0.431437
0.43175
0.423835
0.360066
0.410607
0.423043
0.393187
0.388349
0.480399
0.336611
0.363921
0.426875
0.42423
0.496015
0.36859
0.359182
0.382872
0.385707
0.433586
0.352962
0.399632
0.373782
0.386713
0.306416
0.34964
0.417067
0.451421
0.430782
0.473738
0.271982
0.327117
0.383876
0.568328
0.418039
0.454669
0.368733
0.410813
0.423987
0.37605
0.262171
0.452772
0.423727
0.457493
0.419034
0.364347
0.401196
0.411274
0.430849
0.482932
0.430276
0.40442
0.348814
0.393577
0.418107
0.423498
0.429274
0.392739
0.412005
0.347959
0.461603
0.472788
0.387792
0.389622
0.453758
0.344133
0.377478
0.385791
0.426256
0.353213
0.359526
0.325436
0.390941
0.428574
0.389518
0.38189
0.459393
0.430261
0.418183
0.388272
0.473904
0.469407
0.416559
0.450388
0.49223
0.443546
0.335608
0.381602
0.34612
0.44815
0.361216
0.416095
0.360298
0.354729
0.404431
0.407401
0.434567
0.359034
0.414063
0.350387
0.380069
0.355767
0.443379
0.348383
0.322567
0.304208
0.429961
0.403117
0.425565
0.409934
0.442718
0.405694
0.492707
0.346137
0.364346
0.444146
0.403588
0.491579
0.33837
0.398297
0.451183
0.323636
0.311924
0.378499
0.428072
0.346726
0.309264
0.369453
0.4194
0.411931
0.307954
0.4367
0.427306
0.428891
0.476359
0.357887
0.381892
0.371235
0.430013
0.379105
0.396518
0.409643
0.346144
0.276242
0.376165
0.428279
0.375867
0.385998
0.347982
0.444483
0.398936
0.463365
0.421183
0.339416
0.381765
0.36725
0.407379
0.435829
0.405361
0.413286
0.373761
0.433403
0.316054
0.409659
0.383684
0.390436
0.36029
0.383465
0.465091
0.340441
0.479866
0.420319
0.416257
0.437177
0.328193
0.416497
0.524649
0.393431
0.459693
0.417073
0.307081
0.407512
0.335487
0.427111
0.398778
0.423311
0.38137
0.329889
0.49402
0.334076
0.460505
0.394556
0.336848
0.405341
0.485188
0.405209
0.372264
0.398196
0.36707
0.468621
0.33739
0.47033
0.469247
0.39382
0.440026
0.449038
0.38729
0.355449
0.333672
0.309796
0.278265
0.339106
0.372177
0.356368
0.367839
0.4062
0.397772
0.41149
0.405723
0.377406
0.421619
0.42388
0.401201
0.388711
0.391238
0.427629
0.364426
0.380068
0.327015
0.43469
0.384287
0.305109
0.405728
0.374935
0.380139
0.434072
0.371161
0.345448
0.383456
0.45837
0.425193
0.402465
0.327008
0.309101
0.415486
0.429984
0.318575
0.446846
0.363854
0.359532
0.341838
0.346417
0.41568
0.350775
0.434635
0.388053
0.461663
0.408438
0.435043
0.417562
0.421134
0.365142
0.376979
0.380095
0.333798
0.388566
0.467908
0.502652
0.432906
0.389672
0.416682
0.467319
0.355935
0.427287
0.392472
0.343647
0.457158
0.446555
0.394581
0.41315
0.33881
0.376048
0.344268
0.414166
0.350324
0.408409
0.377455
0.359337
0.395059
0.418642
0.414794
0.424606
0.431758
0.399467
0.429614
0.452579
0.387021
0.388238
0.424971
0.364948
0.411801
0.327489
0.434716
0.356402
0.345164
0.36381
0.37099
0.457735
0.337679
0.414601
0.487502
0.434408
0.364035
0.275584
0.475476
0.467118
0.298629
0.390794
0.386068
0.377345
0.40039
0.465908
0.45793
0.446799
0.310941
0.424328
0.389497
0.359321
0.35488
0.438679
0.382282
0.352666
0.466999
0.36817
0.304627
0.339459
0.37284
0.401717
0.420803
0.414997
0.498936
0.311617
0.32986
0.282206
0.324791
0.379223
0.370503
0.323368
0.447093
0.418423
0.325287
0.449985
0.365718
0.286086
0.463161
0.393601
0.464956
0.36272
0.381025
0.40877
0.375714
0.363276
0.307944
0.392241
0.450626
0.310188
0.347376
0.48664
0.344164
0.384598
0.394963
0.369369
0.336586
0.412973
0.315184
0.427814
0.453592
0.416358
0.345795
0.400821
0.428654
0.380067
0.413036
0.462696
0.395121
0.395748
0.487834
0.423625
0.374557
0.329068
0.437513
0.367089
0.339959
0.481135
0.382851
0.41122
0.426642
0.356562
0.37157
0.340397
0.471023
0.395837
0.340446
0.353253
0.370874
0.384016
0.462736
0.388827
0.270903
0.442682
0.446071
0.362806
0.401019
0.398013
0.387771
0.342259
0.317417
0.391544
0.494807
0.399913
0.401758
0.444467
0.487401
0.424984
0.306447
0.480725
0.3887
0.347627
0.373813
0.497645
0.39267
0.345412
0.389041
0.430647
0.424721
0.357211
0.278331
0.434208
0.377129
0.31916
0.460435
0.387552
0.485608
0.429071
0.402497
0.434098
0.336084
0.417546
0.423283
0.399148
0.464283
0.34736
0.418389
0.492206
0.374778
0.525877
0.412977
0.419204
0.373525
0.383231
0.507848
0.48186
0.448094
0.424779
0.527683
0.403347
0.47708
0.347268
0.365411
0.380394
0.406657
0.291426
0.419889
0.379076
0.45414
0.380921
0.417577
0.367215
0.395923
0.468627
0.390868
0.35103
0.350652
0.437021
0.441227
0.469943
0.437102
0.393927
0.412775
0.403765
0.375553
0.394507
0.416828
0.478584
0.370724
0.373266
0.428998
0.460892
0.435598
0.40119
0.451529
0.361944
0.33619
0.430365
0.400884
0.420729
0.370612
0.337497
0.429095
0.393416
0.393453
0.431345
0.459259
0.389412
0.333888
0.366872
0.376517
0.371094
0.423996
0.406982
0.363531
0.374293
0.423005
0.416334
0.407286
0.473382
0.52138
0.34561
0.432422
0.376282
0.540092
0.39808
0.388269
0.433255
0.429851
0.370906
0.411563
0.366188
0.356132
0.411707
0.396789
0.422036
0.399844
0.287105
0.357545
0.402438
0.373357
0.453925
0.360175
0.445093
0.316678
0.474625
0.375011
0.443889
0.482789
0.42561
0.388003
0.426012
0.457325
0.42108
0.380195
0.404454
0.491397
0.398328
0.427544
0.385611
0.311137
0.503507
0.360107
0.483833
0.328304
0.414413
0.365779
0.420369
0.415473
0.433155
0.408287
0.432318
0.413649
0.370118
0.449612
0.406038
0.418913
0.280545
0.451944
0.446092
0.388374
0.477667
0.391993
0.493327
0.448039
0.400089
0.372186
0.474361
0.495815
0.330737
0.401431
0.430909
0.382066
0.490132
0.418714
0.381215
0.390674
0.427254
0.394792
0.401906
0.38111
0.382717
0.358389
0.378204
0.392457
0.462905
0.425603
0.390322
0.413235
0.417319
0.343346
0.323051
0.424741
0.380031
0.537464
0.404225
0.365217
0.454101
0.332457
0.351517
0.394061
0.351388
0.400505
0.324544
0.45142
0.515288
0.327479
0.407697
0.421961
0.450853
0.383427
0.369147
0.368827
0.399704
0.337393
0.324375
0.384719
0.287013
0.401054
0.357776
0.426238
0.430891
0.398596
0.367729
0.408222
0.500366
0.383176
0.3768
0.480219
0.413343
0.393229
0.448551
0.408514
0.426115
0.442185
0.33416
0.391999
0.325
0.436404
0.426736
0.513681
0.392422
0.481348
0.401626
0.456902
0.451419
0.359367
0.401633
0.396444
0.387323
0.333861
0.412286
0.41683
0.40713
0.402444
0.364104
0.454808
0.522364
0.369906
0.367543
0.413799
0.396957
0.419209
0.406145
0.445148
0.414701
0.402632
0.364775
0.328053
0.320264
0.433213
0.327195
0.492834
0.343031
0.400897
0.379457
0.41467
0.366808
0.470693
0.392539
0.366226
0.364316
0.418461
0.348175
0.355376
0.427402
0.347257
0.465609
0.424002
0.420526
0.406302
0.451071
0.443564
0.415547
0.419222
0.347229
0.348076
0.399163
0.407246
0.32516
0.333739
0.470776
0.451038
0.412527
0.430914
0.523558
0.358104
0.409568
0.338052
0.373816
0.397863
0.326837
0.319307
0.356502
0.407835
0.394799
0.397925
0.371094
0.325713
0.412932
0.433276
0.369098
0.456473
0.432273
0.412129
0.377907
0.418289
0.451785
0.428536
0.401945
0.39685
0.383066
0.363098
0.378168
0.41736
0.351615
0.370349
0.436698
0.360431
0.436593
0.360854
0.404965
0.337625
0.474251
0.293801
0.407425
0.384772
0.450252
0.401063
0.400973
0.337145
0.499442
0.392354
0.537155
0.389813
0.352124
0.430641
0.436875
0.442458
0.415879
0.506886
0.42877
0.363449
0.47935
0.416699
0.403353
0.374479
0.333975
0.446875
0.418862
0.43498
0.349658
0.353676
0.415753
0.347192
0.346985
0.369223
0.388798
0.404336
0.394639
0.340978
0.454511
0.471325
0.373752
0.259404
0.377897
0.488318
0.441365
0.413949
0.352675
0.357936
0.381153
0.43103
0.360798
0.27452
0.376036
0.459124
0.44169
0.274429
0.412025
0.391176
0.376572
0.470227
0.437948
0.375442
0.40462
0.416244
0.355045
0.402105
0.494978
0.395237
0.400718
0.392065
0.370236
0.354918
0.427793
0.35589
0.442931
0.358959
0.383958
0.420783
0.394366
0.383769
0.385974
0.42028
0.360749
0.364842
0.431181
0.414449
0.315478
0.409772
0.456446
0.357973
0.414644
0.420754
0.399222
0.281527
0.361318
0.33995
0.373835
0.406687
0.445816
0.427286
0.483866
0.357949
0.36789
0.342481
0.443535
0.400592
0.342093
0.310221
0.39809
0.3836
0.370961
0.393205
0.34463
0.392885
0.432685
0.369252
0.424819
0.350027
0.391564
0.312706
0.411388
0.516332
0.481375
0.384064
0.406558
0.364468
0.346231
0.406894
0.304217
0.351477
0.335336
0.304381
0.432259
0.332523
0.365628
0.449765
0.448579
0.413172
0.451207
0.370089
0.386125
0.367371
0.443352
0.406163
0.366225
0.418816
0.367665
0.390749
0.217846
0.403462
0.390248
0.510977
0.451759
0.414984
0.442029
0.363728
0.412121
0.373318
0.361482
0.390261
0.398054
0.442672
0.323822
0.297427
0.436281
0.426236
0.359297
0.464245
0.39591
0.365144
0.410081
0.405361
0.379115
0.344248
0.505264
0.38611
0.444045
0.431141
0.469371
0.347242
0.391019
0.441141
0.401258
0.337718
0.379098
0.404434
0.391004
0.518264
0.347017
0.492628
0.449006
0.391709
0.34688
0.412288
0.45247
0.339878
0.356335
0.407944
0.39095
0.374486
0.400257
0.432325
0.397187
0.418898
0.36918
0.372617
0.488068
0.420099
0.366593
0.363949
0.395939
0.427412
0.482898
0.344249
0.347056
0.315238
0.390608
0.405219
0.406102
0.339895
0.426634
0.474764
0.420214
0.403358
0.344233
0.388647
0.333112
0.471813
0.398837
0.364967
0.38593
0.349201
0.434087
0.350525
0.35844
0.455437
0.382306
0.369761
0.336876
0.505494
0.439302
0.26514
0.466457
0.411747
0.447489
0.434484
0.508605
0.448592
0.452227
0.386633
0.448674
0.387028
0.396044
0.316206
0.438885
0.481676
0.416325
0.489276
0.409848
0.345644
0.391462
0.397883
0.442743
0.388216
0.371644
0.408193
0.427521
0.486037
0.407521
0.439819
0.407765
0.286583
0.360836
0.42895
0.44183
0.390597
0.403837
0.396876
0.346247
0.347111
0.322733
0.448783
0.441042
0.341367
0.384758
0.351957
0.333092
0.360481
0.299696
0.366524
0.438283
0.346945
0.338832
0.403621
0.334543
0.457534
0.405991
0.499403
0.440152
0.456337
0.488236
0.34978
0.40088
0.383833
0.32977
0.37715
0.326299
0.415235
0.378511
0.400239
0.410696
0.373255
0.44763
0.345878
0.379604
0.338496
0.429679
0.43262
0.441565
0.47053
0.409019
0.419633
0.414965
0.384923
0.381151
0.419102
0.444887
0.37507
0.40995
0.353702
0.492194
0.469768
0.346102
0.295358
0.357351
0.39909
0.305446
0.461423
0.39596
0.356084
0.347198
0.439259
0.360242
0.416691
0.448496
0.44587
0.326312
0.316225
0.354956
0.436023
0.424214
0.403205
0.415164
0.420164
0.403836
0.388412
0.342344
0.346618
0.396513
0.423471
0.452294
0.533515
0.380163
0.422964
0.439081
0.438499
0.445563
0.320383
0.374936
0.433344
0.393322
0.325554
0.39108
0.402827
0.328629
0.457052
0.333973
0.416451
0.413166
0.392332
0.334142
0.402045
0.346235
0.423673
0.439364
0.399129
0.412411
0.50141
0.385121
0.410551
0.363872
0.409857
0.410796
0.400625
0.377397
0.419738
0.388865
0.334605
0.408381
0.506627
0.395291
0.32781
0.45185
0.327681
0.30942
0.410301
0.394703
0.336119
0.397174
0.413581
0.413882
0.355811
0.474235
0.298658
0.515405
0.419915
0.470066
0.491815
0.410778
0.342977
0.385369
0.404712
0.441114
0.392356
0.324145
0.342442
0.388728
0.425854
0.282949
0.426734
0.425381
0.443358
0.37982
0.440758
0.41365
0.25774
0.337164
0.455525
0.319006
0.374113
0.326426
0.387134
0.387028
0.330064
0.380957
0.316943
0.405396
0.417713
0.516482
0.379978
0.303578
0.294985
0.352169
0.353718
0.413737
0.511772
0.424311
0.369009
0.328818
0.330482
0.448465
0.455121
0.454576
0.393883
0.448357
0.42172
0.297806
0.475791
0.337951
0.380393
0.380392
0.43125
0.384494
0.347751
0.353575
0.411744
0.455906
0.286379
0.451764
0.335737
0.37544
0.450432
0.425688
0.367462
0.409585
0.382567
0.356117
0.373839
0.39867
0.464512
0.355176
0.369322
0.374275
0.401478
0.495354
0.390723
0.413231
0.401151
0.423336
0.399431
0.438305
0.423852
0.235095
0.327256
0.408279
0.430422
0.40328
0.326656
0.373386
0.387746
0.333189
0.285695
0.393311
0.327981
0.382572
0.339186
0.404568
0.392562
0.351222
0.463264
0.395265
0.375336
0.366473
0.472199
0.392492
0.293699
0.400035
0.483514
0.467426
0.361162
0.417285
0.408079
0.444099
0.470935
0.423498
0.423381
0.419794
0.365001
0.332169
0.380575
0.41671
0.405461
0.456715
0.394666
0.445061
0.385138
0.43508
0.366486
0.436988
0.427656
0.3351
0.408202
0.397214
0.422389
0.403887
0.349004
0.423044
0.451555
0.377361
0.5142
0.453303
0.375842
0.377322
0.427652
0.297144
0.409961
0.388219
0.402532
0.456698
0.440326
0.317464
0.469388
0.37954
0.360425
0.406412
0.490575
0.423193
0.438617
0.38031
0.418496
0.456928
0.399794
0.376046
0.366714
0.406194
0.392696
0.251069
0.471853
0.445803
0.400325
0.399438
0.4214
0.315529
0.475477
0.374935
0.32611
0.436756
0.464166
0.465268
0.41829
0.321211
0.450396
0.423735
0.323413
0.398642
0.379159
0.312576
0.377981
0.319709
0.426857
0.399906
0.395558
0.399798
0.434409
0.468998
0.331375
0.440138
0.394325
0.338176
0.364968
0.454406
0.442567
0.391417
0.382666
0.344957
0.385814
0.375367
0.305525
0.373208
0.455878
0.459243
0.449303
0.36306
0.331573
0.409945
0.367488
0.311781
0.398008
0.415995
0.359787
0.497327
0.365511
0.504959
0.492978
0.422564
0.427642
0.377189
0.42593
0.426574
0.433157
0.403354
0.429113
0.454747
0.324399
0.392091
0.472408
0.40533
0.322135
0.368227
0.411239
0.355563
0.393622
0.374563
0.498595
0.383297
0.412981
0.441707
0.419599
0.428461
0.431692
0.362432
0.426313
0.382281
0.312213
0.402306
0.373287
0.349877
0.380464
0.431217
0.34787
0.507022
0.334154
0.423853
0.435841
0.437948
0.437197
0.370054
0.426803
0.417626
0.502527
0.280625
0.498293
0.444738
0.447114
0.365127
0.394865
0.443641
0.425531
0.434271
0.282722
0.340032
0.312722
0.384693
0.369314
0.373654
0.394972
0.417308
0.434391
0.362054
0.286727
0.356289
0.357881
0.352705
0.380085
0.454175
0.407429
0.345452
0.369982
0.477117
0.404772
0.34695
0.354729
0.317134
0.473163
0.320294
0.426565
0.446594
0.452396
0.363163
0.473535
0.445042
0.394669
0.393942
0.445022
0.34983
0.448814
0.357218
0.424583
0.350883
0.317138
0.394068
0.456933
0.307505
0.414808
0.433102
0.361293
0.460916
0.354768
0.308006
0.434176
0.495086
0.444257
0.386252
0.356606
0.33983
0.389456
0.280923
0.426249
0.41908
0.454576
0.391724
0.402057
0.411253
0.385831
0.421173
0.332268
0.395302
0.37194
0.431553
0.412595
0.408779
0.439622
0.492869
0.39094
0.328437
0.304305
0.41155
0.420096
0.439666
0.49351
0.354343
0.340836
0.474741
0.368846
0.393932
0.479656
0.33348
0.341949
0.362851
0.509229
0.327841
0.408907
0.337279
0.484948
0.299952
0.347061
0.381436
0.377875
0.38131
0.463065
0.397358
0.36899
0.422331
0.448221
0.356527
0.388355
0.385874
0.348004
0.412441
0.334822
0.372357
0.338466
0.41205
0.449055
0.426844
0.368091
0.425796
0.411644
0.317539
0.440559
0.298533
0.410054
0.467979
0.451442
0.454199
0.419284
0.369649
0.452609
0.32109
0.363651
0.390783
0.39541
0.458888
0.471597
0.466499
0.381449
0.378863
0.346629
0.460346
0.371232
0.381934
0.395097
0.498463
0.361978
0.391427
0.436959
0.423567
0.450683
0.285025
0.393155
0.451382
0.46421
0.406871
0.38574
0.418493
0.471506
0.33599
0.392271
0.35064
0.451865
0.414097
0.381182
0.418725
0.371926
0.388795
0.338973
0.386761
0.360764
0.504605
0.446242
0.397165
0.413917
0.442686
0.380475
0.462836
0.39678
0.39045
0.391478
0.406135
0.386216
0.408321
0.375926
0.405608
0.384342
0.411902
0.433472
0.405636
0.438296
0.398493
0.502085
0.473034
0.340624
0.363485
0.364935
0.418326
0.416394
0.37826
0.430494
0.446108
0.4089
0.485525
0.373778
0.348529
0.391566
0.494266
0.368244
0.342942
0.403515
0.327446
0.448193
0.33847
0.453056
0.393242
0.423565
0.365879
0.525297
0.402193
0.354062
0.415092
0.484674
0.316979
0.363438
0.429951
0.524923
0.260447
0.281548
0.368939
0.361496
0.390969
0.451575
0.380621
0.398103
0.45599
0.328973
0.337627
0.312984
0.41385
0.447429
0.386988
0.360737
0.397041
0.380392
0.419232
0.459021
0.37007
0.272908
0.355785
0.336763
0.377571
0.415393
0.432889
0.347651
0.445453
0.471289
0.313742
0.419714
0.429532
0.47354
0.476228
0.312825
0.394726
0.357867
0.516034
0.362643
0.365236
0.446808
0.404519
0.493306
0.489007
0.388148
0.389768
0.414255
0.482923
0.327562
0.41889
0.398792
0.272577
0.313694
0.460541
0.432155
0.448189
0.431915
0.431147
0.379886
0.486625
0.395867
0.438375
0.398329
0.482557
0.406296
0.367374
0.351614
0.389017
0.350413
0.344947
0.397696
0.381521
0.373477
0.42737
0.356212
0.306478
0.400811
0.46079
0.45483
0.412247
0.510846
0.446923
0.405338
0.434385
0.373805
0.45491
0.332399
0.391002
0.43875
0.371299
0.368577
0.471053
0.38936
0.502696
0.366002
0.359493
0.403723
0.310609
0.456786
0.413948
0.39417
0.433534
0.363266
0.440393
0.449285
0.434028
0.432892
0.381254
0.387682
0.432717
0.374176
0.398141
0.407383
0.347726
0.446932
0.426077
0.334819
0.396752
0.397043
0.401413
0.466236
0.419628
0.334326
0.375319
0.478513
0.450491
0.469085
0.3641
0.377621
0.424877
0.391542
0.39377
0.344604
0.404201
0.441684
0.434947
0.441195
0.337592
0.418829
0.333456
0.302758
0.36287
0.373837
0.381052
0.37883
0.349638
0.444562
0.42556
0.337238
0.384779
0.383995
0.377116
0.318258
0.362967
0.40542
0.31751
0.297376
0.409799
0.416005
0.310522
0.520286
0.387768
0.343002
0.521858
0.402742
0.348609
0.45679
0.443621
0.350259
0.438744
0.451539
0.460048
0.409121
0.31065
0.406059
0.388136
0.354283
0.43267
0.405936
0.374935
0.441789
0.410066
0.463739
0.375157
0.374306
0.376068
0.394624
0.357818
0.424595
0.414845
0.356787
0.367263
0.393859
0.406489
0.401705
0.394238
0.430771
0.430153
0.350561
0.440948
0.429434
0.405809
0.402528
0.455438
0.402604
0.417188
0.383342
0.371504
0.358091
0.379699
0.429465
0.433173
0.385345
0.410411
0.368865
0.444131
0.4217
0.413379
0.456182
0.467565
0.364538
0.491396
0.368518
0.370659
0.405863
0.373895
0.426125
0.432279
0.395081
0.376321
0.368022
0.415726
0.452202
0.328736
0.532603
0.34434
0.533573
0.311594
0.351467
0.407825
0.323215
0.357632
0.414969
0.414242
0.427933
0.429387
0.408507
0.421533
0.362141
0.371949
0.483654
0.381239
0.451241
0.388804
0.350729
0.416946
0.427316
0.405519
0.377272
0.475332
0.415015
0.366895
0.447824
0.367231
0.41211
0.472287
0.387842
0.439219
0.39146
0.419162
0.523375
0.448337
0.41947
0.358581
0.368556
0.467987
0.387405
0.314337
0.413066
0.362353
0.398868
0.377897
0.440457
0.429145
0.328997
0.421993
0.289218
0.401958
0.43
0.396196
0.315963
0.40055
0.43679
0.456333
0.336774
0.402663
0.307549
0.319381
0.363446
0.447609
0.441949
0.364387
0.420802
0.448115
0.386303
0.367662
0.341457
0.429196
0.352901
0.465807
0.367779
0.366612
0.45487
0.419611
0.39387
0.432374
0.38362
0.430325
0.466602
0.351609
0.382082
0.408824
0.371379
0.327348
0.435747
0.364443
0.523542
0.531347
0.384354
0.334921
0.417035
0.385442
0.354398
0.343378
0.495506
0.407154
0.402516
0.387275
0.406118
0.383245
0.34778
0.448903
0.379024
0.471615
0.349252
0.430437
0.338387
0.386427
0.383768
0.474165
0.456586
0.416474
0.435342
0.453219
0.470201
0.375561
0.391529
0.413549
0.430757
0.43347
0.435603
0.377279
0.387038
0.299271
0.432927
0.340818
0.398926
0.425095
0.279812
0.36027
0.443813
0.466092
0.456755
0.379939
0.4834
0.347562
0.404784
0.362337
0.446187
0.39237
0.442372
0.449293
0.345644
0.394045
0.468513
0.357445
0.402616
0.357862
0.303166
0.504546
0.390927
0.429506
0.365833
0.39045
0.423915
0.459399
0.411631
0.43346
0.374066
0.3794
0.412933
0.373283
0.467279
0.401114
0.43561
0.421777
0.379704
0.444252
0.398063
0.472235
0.378353
0.489325
0.375128
0.445032
0.472664
0.386902
0.393097
0.398967
0.37001
0.481837
0.367149
0.388958
0.32238
0.415956
0.365705
0.319236
0.382412
0.375376
0.367232
0.379127
0.359979
0.381863
0.475374
0.424428
0.490902
0.476273
0.472095
0.372599
0.354568
0.357308
0.400979
0.428708
0.450583
0.305799
0.449839
0.398961
0.451865
0.386832
0.405297
0.350243
0.369177
0.357475
0.517674
0.348218
0.383285
0.300642
0.341111
0.356525
0.34443
0.403513
0.422398
0.337844
0.457641
0.317552
0.415486
0.28624
0.328901
0.401598
0.354749
0.470746
0.396097
0.424892
0.444438
0.393584
0.547889
0.487903
0.364802
0.400142
0.396213
0.333414
0.356855
0.362896
0.352779
0.297128
0.395731
0.420159
0.404978
0.452605
0.425208
0.41179
0.397815
0.418499
0.447929
0.349728
0.45629
0.415033
0.371237
0.307805
0.314828
0.422858
0.452669
0.373665
0.378379
0.375012
0.379583
0.401292
0.346516
0.410624
0.370049
0.437819
0.310507
0.441472
0.445577
0.508349
0.346795
0.325039
0.320518
0.47875
0.341706
0.413919
0.307349
0.296819
0.341157
0.42657
0.431629
0.453951
0.406174
0.413838
0.421679
0.388426
0.475314
0.450321
0.459766
0.44306
0.416226
0.379911
0.437748
0.390806
0.390304
0.387272
0.357026
0.317947
0.424539
0.491287
0.38949
0.39979
0.487866
0.369773
0.315937
0.481926
0.394579
0.332951
0.405967
0.41764
0.413731
0.369281
0.382595
0.406257
0.345676
0.420104
0.474903
0.294744
0.495793
0.433084
0.437659
0.402936
0.490873
0.354561
0.414584
0.367514
0.422899
0.402348
0.41686
0.429301
0.464314
0.308832
0.375653
0.360742
0.405105
0.41108
0.398645
0.323189
0.311229
0.431682
0.490186
0.307455
0.343652
0.317592
0.3583
0.419378
0.369888
0.427597
0.34983
0.424441
0.381447
0.338128
0.409986
0.286738
0.323626
0.376467
0.348234
0.427339
0.318528
0.465893
0.500432
0.428579
0.3302
0.419847
0.443054
0.403013
0.422157
0.366575
0.357956
0.51288
0.349274
0.455676
0.374706
0.373927
0.433073
0.415148
0.392001
0.413909
0.331539
0.352676
0.426142
0.284356
0.434721
0.390841
0.301194
0.48485
0.419984
0.376837
0.387913
0.365174
0.442513
0.376722
0.49162
0.402291
0.33514
0.404367
0.4036
0.37441
0.361092
0.286414
0.401592
0.427024
0.303117
0.402356
0.509573
0.481652
0.36213
0.307812
0.297501
0.438119
0.337256
0.443421
0.393045
0.374779
0.407053
0.385841
0.450434
0.385547
0.32039
0.286883
0.331087
0.496306
0.39554
0.416715
0.423981
0.381612
0.4738
0.334692
0.418452
0.397129
0.399299
0.41948
0.373069
0.351816
0.44599
0.403795
0.42711
0.421571
0.431467
0.395022
0.339715
0.40308
0.404842
0.370312
0.381145
0.485609
0.379807
0.461296
0.409871
0.436144
0.438963
0.361007
0.357382
0.346681
0.373496
0.405482
0.329747
0.474829
0.415779
0.415288
0.370887
0.286822
0.371318
0.36049
0.3749
0.406733
0.409341
0.402995
0.431945
0.42865
0.391643
0.429252
0.435193
0.461466
0.393919
0.438436
0.45379
0.395889
0.443063
0.372605
0.447128
0.393597
0.388048
0.46826
0.384294
0.350929
0.437226
0.397432
0.373419
0.464171
0.408579
0.347984
0.449578
0.343025
0.436769
0.410741
0.284108
0.337436
0.348815
0.316388
0.464215
0.391825
0.467206
0.381281
0.480246
0.412221
0.437718
0.378384
0.348746
0.337977
0.382134
0.364109
0.459086
0.489838
0.429524
0.402314
0.39538
0.515322
0.379861
0.369445
0.404451
0.515339
0.414823
0.335747
0.29333
0.438407
0.376305
0.350304
0.364599
0.314605
0.380565
0.313947
0.437947
0.341563
0.427816
0.442641
0.395624
0.381807
0.458847
0.458655
0.399135
0.450007
0.432536
0.331989
0.466627
0.362475
0.3956
0.341039
0.446715
0.450283
0.445522
0.400456
0.346977
0.374632
0.464076
0.385101
0.369592
0.467056
0.446542
0.476877
0.366866
0.382456
0.402895
0.45511
0.390454
0.363765
0.469379
0.407659
0.423853
0.410105
0.311594
0.39772
0.353809
0.437037
0.394495
0.373212
0.326188
0.453451
0.376888
0.452134
0.329081
0.427043
0.417868
0.333095
0.421689
0.345031
0.466176
0.398956
0.421465
0.411491
0.426766
0.391021
0.36804
0.411837
0.415887
0.422411
0.433058
0.382274
0.397772
0.412624
0.333592
0.403235
0.377261
0.37483
0.452177
0.6069
0.340615
0.376376
0.391894
0.398686
0.434086
0.329698
0.379276
0.398915
0.356922
0.39152
0.351947
0.417172
0.344993
0.465476
0.465436
0.374115
0.448198
0.426614
0.328649
0.419743
0.420928
0.392183
0.382667
0.370439
0.452107
0.380953
0.286013
0.473339
0.349157
0.515941
0.470474
0.371089
0.424396
0.413769
0.41791
0.438855
0.423992
0.397864
0.401757
0.347747
0.329527
0.50754
0.306757
0.350092
0.380842
0.431749
0.402899
0.388533
0.381645
0.420728
0.364106
0.402351
0.404991
0.389156
0.349946
0.378436
0.488673
0.531721
0.341363
0.407879
0.435008
0.375006
0.391913
0.412224
0.373137
0.449782
0.450552
0.404982
0.360457
0.239536
0.465597
0.363185
0.332641
0.35898
0.365437
0.360102
0.358632
0.416339
0.443346
0.391912
0.40394
0.43821
0.241121
0.452786
0.398433
0.354768
0.314826
0.511696
0.340903
0.29469
0.351362
0.30909
0.396071
0.451342
0.434019
0.505197
0.392423
0.411196
0.335594
0.369942
0.502712
0.360115
0.370929
0.369124
0.412769
0.317641
0.484743
0.336422
0.447205
0.434816
0.451898
0.39721
0.379712
0.400951
0.472058
0.431226
0.489512
0.412525
0.424649
0.47688
0.322031
0.39342
0.398277
0.458514
0.324722
0.38629
0.450261
0.442959
0.396077
0.410594
0.412259
0.474041
0.361667
0.418708
0.311752
0.402912
0.469846
0.417777
0.42945
0.305566
0.319313
0.357452
0.373933
0.448299
0.415175
0.321633
0.316917
0.331927
0.429836
0.325364
0.420737
0.400789
0.438917
0.374149
0.356232
0.299416
0.418031
0.345735
0.363053
0.332311
0.440737
0.344065
0.3838
0.475713
0.416922
0.374835
0.326646
0.45512
0.443116
0.424743
0.361103
0.417385
0.334929
0.290748
0.366055
0.325758
0.381087
0.413824
0.390582
0.35972
0.416432
0.501141
0.344091
0.440398
0.4088
0.400729
0.332038
0.417643
0.399783
0.359937
0.377272
0.409202
0.335412
0.444761
0.391307
0.3879
0.413728
0.434416
0.47207
0.377452
0.420795
0.415475
0.45028
0.444984
0.434858
0.259762
0.304478
0.405832
0.35289
0.351325
0.34865
0.370894
0.355822
0.362546
0.359554
0.360309
0.421688
0.436283
0.351123
0.401398
0.464758
0.362211
0.406596
0.35924
0.404446
0.372797
0.260872
0.346928
0.370837
0.411563
0.471023
0.482699
0.473919
0.466849
0.32498
0.383687
0.42527
0.388762
0.485177
0.427839
0.333968
0.357138
0.396745
0.50987
0.375994
0.391968
0.383271
0.368942
0.429423
0.429497
0.419604
0.321576
0.421649
0.410301
0.369471
0.404016
0.443926
0.408732
0.483683
0.363128
0.416793
0.361474
0.474381
0.395648
0.398322
0.422003
0.371773
0.411757
0.333976
0.429569
0.340124
0.482703
0.400042
0.503116
0.519704
0.389828
0.416814
0.363637