/*--------------------------------*- C++ -*----------------------------------*\
  =========                 |
  \\      /  F ield         | OpenFOAM: The Open Source CFD Toolbox
   \\    /   O peration     | Website:  https://openfoam.org
    \\  /    A nd           | Version:  7
     \\/     M anipulation  |
\*---------------------------------------------------------------------------*/
FoamFile
{
    version     2.0;
    format      ascii;
    class       volScalarField;
    location    "0";
    object      epss;
}
// * * * * * * * * * * * * * * * * * * * * * * * * * * * * * * * * * * * * * //

dimensions      [0 0 0 0 0 0 0];

internalField   nonuniform List<scalar> 
196256
(
0.430085
0.358448
0.392159
0.400739
0.319717
0.379415
0.401098
0.424163
0.402364
0.45482
0.375962
0.343606
0.519923
0.420336
0.423512
0.385738
0.387368
0.402635
0.420772
0.337093
0.359706
0.414387
0.296233
0.423744
0.475181
0.415991
0.383615
0.324937
0.409281
0.429333
0.381443
0.408857
0.421668
0.315256
0.41133
0.390204
0.516091
0.419936
0.398316
0.524636
0.380499
0.404601
0.390947
0.437337
0.412158
0.439583
0.48771
0.423528
0.428027
0.46889
0.288441
0.466428
0.442579
0.340441
0.440811
0.416277
0.39573
0.341109
0.335839
0.369962
0.446757
0.332599
0.347484
0.51678
0.375121
0.452509
0.437846
0.497615
0.39373
0.430833
0.365793
0.406445
0.39519
0.307123
0.374499
0.461984
0.461402
0.385247
0.360691
0.452112
0.440716
0.392114
0.341694
0.468009
0.469426
0.421518
0.40714
0.354753
0.366754
0.381987
0.439885
0.480509
0.350737
0.338419
0.421376
0.394315
0.454545
0.359304
0.399913
0.347592
0.440807
0.361612
0.412178
0.353963
0.369448
0.421207
0.413651
0.442616
0.339767
0.406135
0.289098
0.426415
0.367778
0.43125
0.347479
0.355525
0.350664
0.375286
0.418192
0.425057
0.444625
0.372459
0.513127
0.340587
0.409004
0.442746
0.328566
0.377371
0.441571
0.421864
0.367955
0.382775
0.385747
0.39565
0.363674
0.491474
0.462383
0.518019
0.366764
0.339515
0.421324
0.382677
0.382585
0.422192
0.363771
0.399029
0.318548
0.411508
0.448045
0.352836
0.378395
0.434044
0.402144
0.384527
0.260405
0.344729
0.428311
0.364998
0.337704
0.338796
0.431625
0.366871
0.430949
0.387707
0.470727
0.361424
0.321216
0.263144
0.37675
0.319942
0.432552
0.396648
0.28897
0.359335
0.427063
0.37498
0.375487
0.4279
0.394244
0.339471
0.416968
0.390906
0.352612
0.357004
0.400079
0.432559
0.306609
0.476171
0.427755
0.313643
0.40668
0.372861
0.409271
0.43965
0.399329
0.358902
0.377821
0.368852
0.370151
0.481099
0.312864
0.395117
0.393779
0.398462
0.317947
0.469241
0.423528
0.422478
0.304124
0.50335
0.379997
0.420532
0.500895
0.443253
0.372779
0.441118
0.417449
0.430078
0.349023
0.37656
0.439156
0.429751
0.374364
0.417699
0.406497
0.392624
0.438339
0.436457
0.444071
0.364848
0.390193
0.407645
0.445616
0.316509
0.495113
0.338792
0.430931
0.342369
0.456995
0.5127
0.353637
0.363979
0.380015
0.345924
0.469464
0.398084
0.412813
0.387718
0.33338
0.358043
0.376965
0.407547
0.370096
0.433197
0.407737
0.399522
0.471887
0.455975
0.385936
0.400189
0.350845
0.470824
0.43685
0.339521
0.383231
0.337653
0.412284
0.416229
0.475984
0.383269
0.467507
0.477468
0.434437
0.407119
0.349933
0.346994
0.292733
0.377294
0.416011
0.345998
0.402201
0.374991
0.422687
0.392027
0.416499
0.376018
0.428349
0.444347
0.43149
0.346849
0.44065
0.360373
0.397474
0.572175
0.379624
0.435678
0.358501
0.409386
0.444308
0.328681
0.415716
0.469885
0.404263
0.266873
0.351874
0.340903
0.397164
0.392869
0.371799
0.324142
0.386267
0.394629
0.388716
0.441524
0.395582
0.391925
0.45049
0.393805
0.395556
0.500568
0.419079
0.466865
0.369283
0.363256
0.414712
0.408823
0.44841
0.403933
0.418057
0.401439
0.387927
0.457471
0.371494
0.444352
0.466248
0.46272
0.328891
0.348419
0.376105
0.482588
0.392985
0.50892
0.358507
0.354996
0.467698
0.426504
0.427079
0.382545
0.383853
0.41898
0.342992
0.418026
0.426576
0.433404
0.360227
0.367667
0.463208
0.36817
0.433479
0.495594
0.314088
0.38317
0.462901
0.415022
0.337966
0.288952
0.420132
0.398357
0.452663
0.438284
0.377745
0.41428
0.425968
0.356113
0.278847
0.34118
0.382847
0.318984
0.384397
0.360622
0.340865
0.37727
0.446862
0.434275
0.428663
0.430385
0.367524
0.316898
0.316016
0.416494
0.371691
0.387135
0.427111
0.44513
0.448137
0.428679
0.449591
0.426907
0.404149
0.382995
0.358717
0.350946
0.391925
0.411184
0.46839
0.316009
0.341392
0.437564
0.387144
0.382261
0.418273
0.370501
0.355975
0.340937
0.418464
0.467339
0.427489
0.32746
0.333708
0.482838
0.378196
0.448396
0.487934
0.300341
0.432485
0.278664
0.352941
0.448452
0.450064
0.307325
0.431454
0.374219
0.438041
0.514283
0.365223
0.464732
0.328846
0.389314
0.457977
0.442264
0.401057
0.44485
0.339112
0.384586
0.374086
0.469863
0.393762
0.289952
0.352002
0.315161
0.350817
0.377718
0.341425
0.447976
0.378586
0.436165
0.379542
0.377163
0.336781
0.399619
0.27288
0.363507
0.370313
0.404517
0.384549
0.390669
0.353403
0.438008
0.473612
0.428327
0.366843
0.335435
0.241167
0.361547
0.312038
0.369382
0.389823
0.421875
0.332337
0.332366
0.3755
0.344766
0.391277
0.333686
0.399303
0.458571
0.422664
0.432346
0.44731
0.338944
0.325667
0.456392
0.408667
0.376835
0.355065
0.379215
0.294162
0.279903
0.347633
0.408211
0.412898
0.360322
0.518278
0.354755
0.347616
0.561686
0.445054
0.376835
0.392612
0.45566
0.380869
0.498345
0.321536
0.463616
0.408061
0.396857
0.484961
0.463861
0.407987
0.330979
0.443671
0.408535
0.392013
0.412242
0.478872
0.339167
0.494793
0.385412
0.379282
0.425767
0.506207
0.542108
0.433732
0.409493
0.321712
0.425626
0.406302
0.364584
0.46596
0.366297
0.411376
0.291311
0.443238
0.389468
0.4528
0.383079
0.356197
0.402428
0.337541
0.434522
0.476636
0.47103
0.431888
0.423024
0.354921
0.349899
0.429868
0.474286
0.385352
0.425501
0.342951
0.449733
0.360904
0.332257
0.367812
0.392214
0.427561
0.393431
0.470835
0.346153
0.410629
0.302771
0.379148
0.366377
0.355748
0.404219
0.389834
0.516249
0.422517
0.450956
0.352626
0.362196
0.388564
0.462289
0.425027
0.447176
0.434543
0.531645
0.419321
0.4519
0.380863
0.358993
0.358707
0.407786
0.289926
0.399353
0.360102
0.368305
0.394742
0.390547
0.46216
0.375805
0.369852
0.361532
0.434375
0.411354
0.425753
0.31406
0.398151
0.425179
0.354144
0.396043
0.434368
0.460878
0.350577
0.343334
0.398231
0.369758
0.454405
0.428216
0.357295
0.465413
0.446646
0.403781
0.357992
0.335795
0.351178
0.343976
0.454929
0.304028
0.465533
0.436335
0.366399
0.398163
0.399471
0.329821
0.459173
0.46724
0.279432
0.457319
0.422628
0.364849
0.441855
0.299091
0.343071
0.419441
0.379701
0.42621
0.356269
0.459813
0.39317
0.328333
0.497179
0.460835
0.413224
0.348555
0.405759
0.447382
0.386887
0.455477
0.389291
0.377442
0.363018
0.361415
0.469644
0.567409
0.50878
0.383305
0.298314
0.378018
0.305088
0.416304
0.375407
0.458932
0.480267
0.334209
0.417478
0.466311
0.446763
0.403706
0.322631
0.41056
0.365142
0.306706
0.423236
0.32798
0.449581
0.402654
0.468899
0.356911
0.420558
0.438126
0.380123
0.435613
0.386802
0.405062
0.374236
0.423354
0.437147
0.441323
0.421588
0.417485
0.384364
0.425066
0.338211
0.400195
0.365552
0.481713
0.389294
0.394326
0.383799
0.331025
0.427826
0.417514
0.390284
0.330568
0.406599
0.42646
0.388065
0.34587
0.370187
0.393801
0.398093
0.420414
0.387689
0.378362
0.440537
0.442259
0.40951
0.391095
0.379294
0.436933
0.421591
0.344697
0.430063
0.438527
0.385941
0.384871
0.484119
0.364159
0.362064
0.446011
0.450723
0.427523
0.354276
0.345804
0.380045
0.377525
0.404242
0.367962
0.404705
0.32544
0.479758
0.409342
0.379699
0.443948
0.409076
0.344598
0.44554
0.445857
0.335126
0.393577
0.426149
0.427327
0.430495
0.45678
0.336118
0.297073
0.339348
0.387988
0.448912
0.492747
0.412686
0.42859
0.384164
0.495351
0.351612
0.398639
0.372346
0.416464
0.46243
0.417994
0.374722
0.3288
0.348596
0.347956
0.376321
0.35721
0.416785
0.334205
0.41281
0.372878
0.427259
0.3155
0.418576
0.343362
0.432673
0.326145
0.408918
0.448008
0.374935
0.449437
0.337712
0.298991
0.451491
0.362318
0.405007
0.38724
0.494421
0.381955
0.451726
0.45806
0.38073
0.468616
0.392887
0.379116
0.487239
0.383828
0.384936
0.393092
0.451837
0.396763
0.370462
0.440148
0.359487
0.389482
0.404874
0.352766
0.403006
0.388344
0.430771
0.325617
0.379504
0.402851
0.393702
0.347156
0.366793
0.397256
0.416644
0.383028
0.333543
0.435969
0.420456
0.385983
0.360949
0.370167
0.36
0.505182
0.410496
0.421364
0.495718
0.425399
0.374043
0.305215
0.325752
0.492016
0.405014
0.441857
0.38249
0.468168
0.405652
0.331648
0.350157
0.316694
0.360709
0.468147
0.361224
0.354416
0.416485
0.311527
0.432096
0.383802
0.414713
0.36331
0.457131
0.328122
0.439592
0.444503
0.393812
0.506282
0.450573
0.306983
0.427923
0.333857
0.437496
0.389567
0.398286
0.413491
0.44328
0.406875
0.459644
0.473397
0.352325
0.406572
0.359216
0.396466
0.417593
0.4251
0.454033
0.38638
0.36703
0.442023
0.396078
0.369913
0.3736
0.307042
0.333915
0.375734
0.34606
0.360128
0.339833
0.310835
0.398989
0.264416
0.420653
0.348205
0.276045
0.441314
0.344258
0.39418
0.340181
0.469426
0.380177
0.446947
0.4226
0.403467
0.407089
0.506263
0.425254
0.336161
0.463425
0.464999
0.389084
0.371376
0.47151
0.334204
0.437653
0.416973
0.364811
0.422523
0.404751
0.426277
0.347572
0.394197
0.407693
0.429501
0.482829
0.457722
0.346987
0.373505
0.326367
0.390293
0.433078
0.434605
0.385669
0.378829
0.37885
0.331644
0.375485
0.399224
0.478845
0.452334
0.389723
0.278766
0.361665
0.370432
0.286857
0.428525
0.434105
0.453937
0.388228
0.426287
0.415912
0.372807
0.429398
0.492361
0.414615
0.386972
0.332261
0.340955
0.408213
0.434613
0.354563
0.495561
0.428639
0.295391
0.380844
0.403097
0.350734
0.432743
0.442101
0.368353
0.454973
0.458971
0.434614
0.446039
0.434239
0.381814
0.388917
0.51193
0.392629
0.275354
0.436564
0.453868
0.40189
0.372431
0.409305
0.377116
0.36964
0.331011
0.436787
0.310046
0.292742
0.340659
0.441655
0.352604
0.442759
0.328386
0.437914
0.434398
0.404977
0.365538
0.393908
0.423158
0.46656
0.429728
0.465232
0.362099
0.400358
0.362283
0.339877
0.384739
0.423363
0.375006
0.430979
0.314369
0.433157
0.440089
0.418367
0.454136
0.370225
0.373935
0.389789
0.490638
0.479708
0.400336
0.378977
0.418957
0.40601
0.435759
0.443156
0.367942
0.344194
0.256082
0.364949
0.359829
0.464864
0.425335
0.48652
0.454552
0.3455
0.406666
0.323992
0.406897
0.350588
0.430548
0.370445
0.448131
0.281416
0.39041
0.37072
0.483213
0.430601
0.353764
0.321701
0.367603
0.383897
0.313808
0.307689
0.342132
0.492907
0.360369
0.435751
0.449837
0.301787
0.366848
0.479755
0.386748
0.416553
0.44966
0.447123
0.337391
0.387607
0.319682
0.539502
0.38015
0.362872
0.437254
0.376313
0.36192
0.422579
0.365636
0.461352
0.364225
0.357413
0.355843
0.396445
0.430297
0.388012
0.417641
0.416364
0.477194
0.359299
0.456798
0.402799
0.328054
0.366548
0.328699
0.434832
0.405289
0.439154
0.430929
0.433348
0.404493
0.476152
0.466326
0.450453
0.435125
0.363074
0.409581
0.360016
0.327814
0.430081
0.466931
0.440747
0.372598
0.408716
0.356339
0.442976
0.483142
0.326946
0.384912
0.396309
0.386745
0.35722
0.443539
0.434635
0.443574
0.350286
0.341343
0.434331
0.374931
0.418904
0.371035
0.345103
0.395723
0.324212
0.350405
0.361398
0.404331
0.34016
0.433005
0.287711
0.341977
0.438285
0.368288
0.435095
0.410979
0.371757
0.414489
0.439818
0.378209
0.418075
0.369066
0.307232
0.364696
0.462448
0.371179
0.38585
0.358214
0.365224
0.422187
0.349405
0.349658
0.311932
0.401159
0.39043
0.445376
0.359716
0.360545
0.519345
0.391261
0.363136
0.431248
0.31297
0.445294
0.38619
0.340333
0.42861
0.42203
0.235646
0.405771
0.408976
0.438859
0.313028
0.410161
0.451409
0.366416
0.376878
0.396529
0.34293
0.294679
0.36374
0.379666
0.376005
0.378331
0.350444
0.331024
0.466783
0.407407
0.411056
0.428814
0.453354
0.421262
0.425564
0.448445
0.336947
0.368362
0.460322
0.413813
0.411577
0.397419
0.41145
0.386122
0.390573
0.390102
0.354902
0.356123
0.476518
0.425916
0.391562
0.313181
0.447099
0.341028
0.403401
0.512781
0.411389
0.485153
0.393839
0.410246
0.309332
0.435567
0.408931
0.374364
0.37757
0.473222
0.410738
0.46919
0.432287
0.308192
0.464264
0.526184
0.421901
0.379342
0.353469
0.387931
0.391497
0.36625
0.445584
0.349135
0.440435
0.389644
0.417991
0.304642
0.348645
0.415412
0.456809
0.420357
0.39601
0.356351
0.448746
0.371687
0.479377
0.357194
0.418507
0.345705
0.394533
0.421523
0.310672
0.434678
0.374158
0.363032
0.463378
0.49998
0.388124
0.318521
0.35471
0.462136
0.382544
0.515731
0.351066
0.37013
0.424522
0.403014
0.337239
0.396098
0.357653
0.383647
0.376559
0.465255
0.429679
0.326813
0.440117
0.394325
0.398394
0.374489
0.393051
0.358361
0.492914
0.494101
0.424035
0.395305
0.334846
0.377422
0.38412
0.40564
0.464474
0.441874
0.353764
0.399157
0.378298
0.370637
0.395417
0.445482
0.437834
0.365127
0.503421
0.363284
0.398389
0.32881
0.359261
0.37131
0.358671
0.324987
0.434106
0.481645
0.344023
0.43398
0.445343
0.461218
0.43935
0.411693
0.431345
0.40572
0.374087
0.431548
0.367147
0.377051
0.39054
0.467659
0.422619
0.453307
0.412605
0.331101
0.456216
0.361662
0.436198
0.424166
0.409052
0.445292
0.391041
0.523445
0.37603
0.448812
0.44144
0.350036
0.391158
0.430905
0.348519
0.399113
0.34187
0.419167
0.399393
0.433998
0.381902
0.422683
0.396093
0.451118
0.341643
0.412777
0.427158
0.408567
0.350681
0.475343
0.512358
0.496943
0.443128
0.428085
0.398901
0.379772
0.453793
0.447916
0.421039
0.36841
0.370938
0.324983
0.337997
0.298502
0.358191
0.382449
0.355236
0.343587
0.435089
0.460065
0.334093
0.402549
0.403195
0.345062
0.289047
0.355743
0.371636
0.414071
0.518211
0.353076
0.423886
0.368092
0.379581
0.472626
0.3765
0.317071
0.381982
0.409864
0.441448
0.435274
0.422761
0.365513
0.3949
0.483388
0.454899
0.404323
0.413975
0.490405
0.360089
0.382528
0.478929
0.414503
0.355702
0.38919
0.407566
0.364978
0.380089
0.377881
0.387708
0.406263
0.357664
0.376134
0.474462
0.525839
0.474611
0.269805
0.381556
0.414302
0.442897
0.437225
0.278784
0.447314
0.408235
0.392065
0.37017
0.351019
0.404091
0.361279
0.446745
0.39378
0.444934
0.391714
0.362927
0.455167
0.367378
0.389051
0.449024
0.441088
0.470044
0.404496
0.313312
0.389805
0.345863
0.39585
0.311529
0.407737
0.45984
0.478368
0.367814
0.315152
0.271764
0.392322
0.431639
0.449754
0.45358
0.320661
0.488234
0.295227
0.435723
0.462663
0.446113
0.379911
0.402874
0.367583
0.498746
0.393785
0.431994
0.443295
0.368031
0.367146
0.406179
0.486656
0.445012
0.455242
0.422433
0.365381
0.467534
0.364171
0.418205
0.378132
0.399921
0.381288
0.313061
0.430294
0.230432
0.38344
0.411825
0.431656
0.475369
0.454826
0.355366
0.517872
0.410784
0.459581
0.328099
0.317764
0.319335
0.389498
0.519976
0.373619
0.375745
0.399927
0.375988
0.360273
0.462152
0.302825
0.313837
0.503993
0.380099
0.428356
0.404871
0.417959
0.358961
0.355801
0.437886
0.374016
0.3408
0.411479
0.384239
0.412404
0.433313
0.356517
0.409675
0.420625
0.437867
0.444122
0.414654
0.435299
0.377219
0.372961
0.573544
0.378481
0.402902
0.42298
0.30778
0.393628
0.383247
0.399333
0.380616
0.326903
0.398527
0.46238
0.450426
0.423739
0.372593
0.353368
0.39932
0.368118
0.433985
0.475554
0.373462
0.3961
0.327117
0.414043
0.468637
0.408831
0.355781
0.392123
0.411217
0.427609
0.543716
0.404449
0.322072
0.374055
0.390333
0.584711
0.431137
0.447195
0.459603
0.230508
0.413081
0.449849
0.323687
0.327146
0.451805
0.412304
0.313449
0.412781
0.423382
0.401319
0.360917
0.368083
0.349923
0.437477
0.480586
0.477975
0.398334
0.334543
0.470414
0.478753
0.377129
0.327649
0.386465
0.442183
0.477783
0.463414
0.429198
0.416076
0.534147
0.378533
0.352471
0.470602
0.427866
0.433742
0.323394
0.341741
0.359929
0.382853
0.364788
0.455617
0.421123
0.410381
0.379846
0.401885
0.413558
0.579382
0.405305
0.368326
0.298662
0.464682
0.448123
0.387797
0.391008
0.397643
0.394399
0.376033
0.411147
0.430486
0.367017
0.394147
0.417536
0.449393
0.406007
0.419081
0.348653
0.384421
0.391791
0.437165
0.406511
0.442881
0.36221
0.343705
0.396518
0.34423
0.447262
0.481456
0.357993
0.396351
0.323447
0.423983
0.456563
0.431439
0.488732
0.510162
0.357928
0.459949
0.436262
0.365689
0.469849
0.454906
0.38978
0.431035
0.443435
0.463879
0.355245
0.438847
0.4208
0.441361
0.445739
0.435219
0.412199
0.347556
0.39519
0.313488
0.452432
0.382395
0.422146
0.446281
0.432196
0.469282
0.450131
0.313522
0.341529
0.38142
0.375933
0.364838
0.395785
0.386567
0.499006
0.54637
0.330131
0.320857
0.417389
0.329037
0.453666
0.444346
0.483875
0.367114
0.402903
0.486534
0.456158
0.434859
0.427209
0.408733
0.384813
0.437162
0.431502
0.356412
0.427146
0.36705
0.414642
0.367712
0.352725
0.377296
0.436774
0.412002
0.418481
0.342929
0.391175
0.455511
0.433358
0.361663
0.407925
0.368796
0.4352
0.393505
0.320603
0.348661
0.441057
0.382085
0.385356
0.368232
0.381405
0.4356
0.3779
0.501017
0.362263
0.316244
0.434557
0.364162
0.388613
0.427997
0.410512
0.415779
0.456905
0.593165
0.511013
0.356805
0.500466
0.466087
0.416626
0.426607
0.425399
0.379174
0.433694
0.429372
0.438889
0.408875
0.442296
0.415434
0.312346
0.334246
0.411961
0.349815
0.403746
0.310191
0.390645
0.339692
0.36279
0.349654
0.413385
0.417262
0.436275
0.412426
0.401857
0.421916
0.376332
0.361685
0.434227
0.39238
0.339279
0.346409
0.340833
0.464249
0.352011
0.412477
0.38309
0.353201
0.415614
0.274666
0.378492
0.469855
0.416461
0.461287
0.392814
0.421223
0.434897
0.476746
0.3529
0.445777
0.479283
0.417911
0.360457
0.396501
0.305912
0.400668
0.451324
0.385886
0.366175
0.471736
0.38151
0.397951
0.440786
0.437242
0.39445
0.376893
0.378731
0.35489
0.384675
0.47536
0.437965
0.491723
0.491345
0.328125
0.37511
0.444678
0.41355
0.346423
0.36373
0.39731
0.424708
0.317832
0.406601
0.364659
0.461009
0.465693
0.404687
0.305937
0.384149
0.350625
0.36802
0.348554
0.415764
0.424893
0.35577
0.391342
0.439692
0.353948
0.389227
0.383532
0.341565
0.416745
0.406799
0.42725
0.462149
0.368547
0.461733
0.436413
0.426024
0.402394
0.449565
0.393759
0.408624
0.425417
0.31947
0.396184
0.398176
0.398825
0.423824
0.404381
0.398293
0.408754
0.419787
0.344488
0.390308
0.301666
0.334516
0.392339
0.434902
0.368104
0.369191
0.394928
0.395837
0.420429
0.347165
0.347445
0.361028
0.404517
0.429422
0.412096
0.381128
0.347046
0.511687
0.462721
0.370839
0.409271
0.256954
0.402574
0.47194
0.436442
0.391348
0.470547
0.401911
0.368377
0.392055
0.363763
0.47426
0.424143
0.284202
0.307645
0.316529
0.410199
0.328871
0.336643
0.318062
0.411014
0.469146
0.434775
0.472132
0.385581
0.400834
0.446807
0.440707
0.46692
0.407158
0.380631
0.43397
0.393862
0.325061
0.428567
0.457926
0.418243
0.390321
0.441115
0.452879
0.377497
0.456636
0.471688
0.272317
0.424571
0.375696
0.473692
0.359516
0.393677
0.473747
0.415862
0.404743
0.483366
0.362708
0.39552
0.386418
0.385904
0.385914
0.335037
0.396769
0.406064
0.385965
0.444195
0.385748
0.326977
0.457299
0.386518
0.413452
0.451518
0.412657
0.378926
0.415798
0.438084
0.301204
0.464249
0.42655
0.409874
0.34489
0.44439
0.378523
0.40145
0.444115
0.351809
0.415595
0.33817
0.464436
0.334188
0.431425
0.284823
0.320004
0.406009
0.400732
0.47574
0.382699
0.346558
0.452255
0.37479
0.397859
0.40974
0.413893
0.381523
0.367751
0.414664
0.401007
0.328576
0.383494
0.47868
0.427353
0.464198
0.379918
0.457711
0.317698
0.356105
0.404068
0.444558
0.386074
0.423372
0.373751
0.443326
0.406253
0.331477
0.498503
0.359259
0.424214
0.47156
0.33397
0.433664
0.305364
0.384574
0.418272
0.36446
0.413201
0.413494
0.371678
0.369988
0.353201
0.319658
0.319376
0.399696
0.393994
0.488423
0.39946
0.428403
0.351729
0.349236
0.350717
0.467018
0.407801
0.424049
0.400078
0.37241
0.404644
0.461308
0.38227
0.275217
0.414778
0.402429
0.40451
0.342476
0.487653
0.407184
0.511895
0.332891
0.403611
0.336689
0.429466
0.479469
0.406497
0.402999
0.344745
0.418855
0.403251
0.342562
0.44991
0.391338
0.399341
0.47912
0.431202
0.39394
0.397187
0.383893
0.454931
0.445087
0.445141
0.451905
0.451609
0.402638
0.323283
0.478118
0.397009
0.406167
0.431635
0.36016
0.46388
0.47097
0.433208
0.432021
0.43075
0.377816
0.493679
0.379939
0.458151
0.340223
0.413936
0.432463
0.346114
0.416815
0.417936
0.30026
0.480666
0.38697
0.409026
0.384088
0.42334
0.349734
0.376623
0.383362
0.416915
0.386039
0.359087
0.331703
0.406178
0.291228
0.365796
0.447703
0.404832
0.39149
0.348112
0.406615
0.433577
0.338499
0.323065
0.292047
0.376514
0.375386
0.386136
0.422861
0.38474
0.417313
0.379684
0.376571
0.433575
0.533562
0.453456
0.490586
0.389328
0.415943
0.461203
0.409893
0.379596
0.423002
0.434565
0.362195
0.379904
0.442349
0.480765
0.392054
0.47681
0.293911
0.376391
0.467797
0.419601
0.38932
0.413634
0.473855
0.480868
0.450209
0.423338
0.399815
0.498247
0.343659
0.536222
0.446002
0.333553
0.416739
0.35189
0.435488
0.491747
0.433881
0.463227
0.45584
0.407442
0.421725
0.39371
0.401843
0.340219
0.374965
0.357049
0.410153
0.307343
0.432716
0.409006
0.389239
0.350073
0.258974
0.428
0.377876
0.331232
0.508005
0.473897
0.399597
0.338277
0.351159
0.318531
0.495282
0.311476
0.380524
0.42212
0.435271
0.48936
0.409349
0.372186
0.353957
0.410877
0.402142
0.466787
0.41797
0.375552
0.413215
0.354298
0.378086
0.377773
0.382546
0.356307
0.351434
0.359964
0.398728
0.283971
0.406662
0.393663
0.420877
0.340974
0.452202
0.447638
0.34038
0.419203
0.371443
0.457038
0.354027
0.419537
0.372258
0.459252
0.471156
0.386909
0.474745
0.413746
0.498319
0.431384
0.380434
0.353125
0.353428
0.381919
0.490158
0.429868
0.447543
0.422345
0.443003
0.356578
0.358673
0.473003
0.414319
0.38581
0.435222
0.375231
0.416861
0.37158
0.384987
0.46017
0.384294
0.355664
0.526888
0.430924
0.489729
0.490744
0.396988
0.421854
0.372228
0.325566
0.375337
0.379026
0.365318
0.43531
0.347313
0.428066
0.361113
0.375647
0.381611
0.352876
0.424442
0.349162
0.408896
0.456139
0.474909
0.390333
0.376656
0.478529
0.354364
0.444057
0.440593
0.431781
0.382259
0.318649
0.402147
0.342607
0.368712
0.319742
0.353657
0.39583
0.356637
0.378142
0.364426
0.379836
0.387544
0.350437
0.401652
0.375214
0.395278
0.462415
0.418933
0.451912
0.385073
0.382603
0.445164
0.364741
0.401243
0.425213
0.521322
0.402607
0.301582
0.369866
0.367753
0.378811
0.401906
0.369109
0.406807
0.364827
0.31665
0.430616
0.458447
0.356551
0.500705
0.452671
0.491503
0.385408
0.407183
0.429333
0.416215
0.337611
0.423089
0.430632
0.469782
0.325253
0.34464
0.365801
0.316348
0.371167
0.42944
0.364077
0.377318
0.415493
0.357362
0.454555
0.377134
0.38375
0.437816
0.368329
0.362581
0.439831
0.451251
0.42867
0.288798
0.513238
0.380954
0.405912
0.366747
0.379859
0.398431
0.396312
0.385728
0.385059
0.384174
0.424831
0.406352
0.366511
0.429632
0.41697
0.343205
0.407213
0.437959
0.354958
0.366929
0.435904
0.485457
0.412852
0.512987
0.432335
0.379984
0.40408
0.419197
0.393147
0.345569
0.430265
0.405505
0.37724
0.409078
0.346368
0.431348
0.373064
0.455369
0.394421
0.335416
0.423694
0.386757
0.420255
0.421482
0.422269
0.479374
0.380083
0.330385
0.484885
0.435715
0.440625
0.438469
0.405412
0.276116
0.288999
0.448386
0.496662
0.345177
0.431102
0.33054
0.429715
0.400564
0.420707
0.297464
0.425662
0.412482
0.379255
0.396981
0.403128
0.310428
0.400206
0.40832
0.491741
0.313875
0.411058
0.374732
0.319524
0.355224
0.379763
0.28957
0.394056
0.391616
0.424013
0.39885
0.386811
0.376502
0.424301
0.323707
0.401646
0.389273
0.398798
0.363613
0.407658
0.499917
0.352633
0.323317
0.485
0.50103
0.378999
0.410436
0.308958
0.438595
0.343409
0.41683
0.360406
0.359075
0.341517
0.350537
0.33042
0.508131
0.362938
0.493271
0.377979
0.398537
0.399536
0.305616
0.450795
0.360231
0.408264
0.380619
0.406273
0.369556
0.379256
0.401403
0.457735
0.427798
0.486692
0.430528
0.418955
0.3759
0.388307
0.342711
0.441239
0.395122
0.451483
0.382265
0.381735
0.361864
0.429894
0.408542
0.464635
0.396543
0.434344
0.434514
0.455002
0.437792
0.346826
0.445421
0.316404
0.301153
0.337213
0.399965
0.417114
0.428407
0.431171
0.342249
0.463738
0.332561
0.429951
0.423913
0.477268
0.476735
0.367545
0.309785
0.424014
0.329119
0.416008
0.349179
0.372951
0.439013
0.403132
0.324188
0.432615
0.402711
0.246658
0.390323
0.412787
0.422919
0.322172
0.387899
0.352482
0.316692
0.442312
0.418568
0.379899
0.475565
0.48305
0.431559
0.404413
0.352743
0.384354
0.469122
0.419576
0.406842
0.400931
0.379888
0.449783
0.431869
0.394185
0.389707
0.380594
0.362389
0.461016
0.398578
0.444705
0.41125
0.378729
0.363959
0.499649
0.339903
0.473393
0.50117
0.406002
0.409177
0.346425
0.38697
0.442703
0.44063
0.469178
0.352739
0.427199
0.364637
0.312343
0.366035
0.39446
0.381759
0.42092
0.451794
0.388114
0.412047
0.425163
0.376261
0.351175
0.377812
0.429647
0.362847
0.299032
0.456313
0.426021
0.403591
0.498267
0.344785
0.425833
0.450157
0.401692
0.373874
0.403184
0.368891
0.302504
0.387203
0.40657
0.435721
0.380294
0.479537
0.469103
0.32535
0.441594
0.449985
0.486595
0.372596
0.386898
0.417577
0.338067
0.432813
0.45481
0.393624
0.38717
0.482369
0.443928
0.316063
0.449733
0.372639
0.460495
0.470639
0.464687
0.475353
0.408994
0.337453
0.328979
0.363968
0.401438
0.39706
0.395287
0.442475
0.494189
0.400506
0.436911
0.45091
0.302309
0.370132
0.434119
0.430087
0.41184
0.418308
0.424465
0.399329
0.376402
0.333692
0.5631
0.389104
0.425547
0.38127
0.376032
0.346513
0.486419
0.474803
0.420241
0.404235
0.367569
0.401153
0.366599
0.326196
0.499376
0.449174
0.380748
0.384336
0.280956
0.259977
0.428531
0.444414
0.386886
0.456728
0.411361
0.444042
0.392323
0.315334
0.429821
0.396983
0.41129
0.443786
0.462911
0.36174
0.371983
0.327569
0.367394
0.455757
0.330357
0.437835
0.444415
0.366062
0.335874
0.438524
0.339593
0.419437
0.401896
0.471713
0.402876
0.262834
0.399017
0.394776
0.393041
0.388059
0.398937
0.467321
0.499594
0.35997
0.406506
0.405565
0.474905
0.42957
0.431222
0.38438
0.390528
0.387291
0.355405
0.414956
0.471295
0.386705
0.483583
0.395184
0.316658
0.467666
0.329359
0.298486
0.439028
0.400055
0.336102
0.440593
0.369519
0.37433
0.374749
0.369045
0.346841
0.421576
0.36203
0.496114
0.367264
0.359306
0.321226
0.442763
0.3969
0.300038
0.39032
0.423586
0.36536
0.395272
0.465925
0.378845
0.451291
0.382694
0.415094
0.509206
0.387272
0.479387
0.385502
0.384748
0.324444
0.39094
0.360466
0.373798
0.465801
0.422329
0.432049
0.350872
0.410368
0.488789
0.37957
0.379762
0.431879
0.3922
0.384049
0.349746
0.421703
0.33915
0.422795
0.288013
0.428187
0.410341
0.316381
0.399625
0.351037
0.460521
0.486706
0.41889
0.459462
0.3762
0.380812
0.486145
0.429026
0.464322
0.487726
0.389131
0.478661
0.443919
0.400533
0.394934
0.398702
0.464288
0.418796
0.422449
0.475137
0.342081
0.517858
0.434709
0.325521
0.371147
0.352613
0.428981
0.420184
0.404078
0.370491
0.459263
0.365363
0.382646
0.413663
0.397773
0.408243
0.327711
0.409194
0.326531
0.418095
0.482451
0.464906
0.432299
0.337901
0.383059
0.379667
0.334532
0.371834
0.3713
0.37168
0.374733
0.312051
0.31502
0.449924
0.302437
0.393921
0.387337
0.501065
0.456047
0.436333
0.408145
0.478537
0.438145
0.423682
0.379698
0.40575
0.434808
0.511898
0.350859
0.3064
0.349944
0.328748
0.41304
0.502136
0.285605
0.381598
0.469523
0.427111
0.362307
0.467127
0.412504
0.538958
0.446613
0.472516
0.306617
0.334935
0.433558
0.38711
0.481578
0.3472
0.418933
0.422162
0.306135
0.336418
0.408546
0.386038
0.462682
0.391655
0.403657
0.47836
0.362097
0.360409
0.456635
0.450358
0.376062
0.378804
0.401477
0.379232
0.372904
0.413546
0.392645
0.362247
0.372108
0.399124
0.293182
0.39322
0.442187
0.417925
0.445367
0.367171
0.422356
0.459084
0.397869
0.442442
0.40204
0.379963
0.404975
0.462909
0.316849
0.481475
0.413203
0.413712
0.362566
0.359517
0.357895
0.493378
0.366386
0.412421
0.494612
0.353677
0.346088
0.412287
0.293648
0.384606
0.445785
0.413476
0.405973
0.410421
0.391496
0.392026
0.396154
0.481904
0.373466
0.497177
0.472142
0.382693
0.380631
0.477071
0.351794
0.41168
0.449709
0.4449
0.419209
0.319491
0.40302
0.362639
0.388665
0.417558
0.490577
0.445915
0.414029
0.457937
0.439355
0.377736
0.312997
0.462176
0.391773
0.4217
0.432258
0.361009
0.397067
0.426367
0.512447
0.323149
0.413259
0.381557
0.447091
0.453133
0.473992
0.303128
0.396323
0.305803
0.393719
0.428522
0.399039
0.361292
0.285085
0.441639
0.472258
0.432645
0.390334
0.423193
0.355738
0.393913
0.37487
0.345759
0.382979
0.361163
0.358216
0.441708
0.402026
0.391633
0.356997
0.433364
0.412995
0.399947
0.277726
0.386883
0.359545
0.360009
0.446646
0.446158
0.362431
0.407242
0.401609
0.37424
0.409841
0.358673
0.472178
0.269115
0.297514
0.375982
0.372646
0.400578
0.412024
0.407231
0.400744
0.474851
0.337966
0.35984
0.383681
0.474156
0.464431
0.488229
0.365894
0.354524
0.399621
0.347535
0.427541
0.40963
0.413013
0.423317
0.463943
0.374551
0.526353
0.439629
0.477496
0.418948
0.466588
0.381389
0.480337
0.480284
0.463411
0.43564
0.326623
0.348149
0.400304
0.440412
0.448385
0.359063
0.348488
0.367155
0.403414
0.446961
0.335925
0.455618
0.380743
0.388409
0.389694
0.377096
0.43069
0.3836
0.350028
0.333749
0.440405
0.469994
0.428924
0.424671
0.422201
0.383072
0.36897
0.361738
0.469385
0.424407
0.337014
0.354826
0.341141
0.326218
0.416417
0.378165
0.391546
0.414651
0.377299
0.462714
0.450612
0.432606
0.365087
0.419798
0.431692
0.439703
0.349983
0.336995
0.428072
0.380631
0.348264
0.360396
0.358154
0.434574
0.3169
0.326711
0.387864
0.44129
0.468104
0.444989
0.427676
0.449552
0.368735
0.377433
0.449043
0.522251
0.484052
0.304993
0.414005
0.412924
0.431148
0.478309
0.415439
0.406181
0.37676
0.465146
0.337434
0.382916
0.340411
0.43737
0.360457
0.405715
0.435066
0.400198
0.379963
0.381507
0.37526
0.355212
0.350108
0.29061
0.388134
0.402276
0.4593
0.492016
0.339764
0.454667
0.437459
0.420359
0.446242
0.367435
0.330803
0.435661
0.375783
0.336912
0.442041
0.341448
0.268297
0.368712
0.428387
0.396689
0.332646
0.4373
0.368022
0.400114
0.37143
0.322479
0.410897
0.387286
0.441952
0.396588
0.336178
0.477604
0.394425
0.408523
0.382135
0.374756
0.335319
0.371293
0.432907
0.361357
0.445428
0.409088
0.359397
0.359162
0.296976
0.49735
0.408342
0.412506
0.409546
0.332903
0.457894
0.395082
0.422436
0.362354
0.33836
0.397938
0.494638
0.329156
0.407124
0.487927
0.318586
0.466552
0.389498
0.433042
0.482905
0.320053
0.378428
0.425241
0.391108
0.506178
0.413066
0.481815
0.346059
0.356783
0.386052
0.420465
0.48961
0.402293
0.394084
0.416983
0.335106
0.480352
0.422727
0.330944
0.407279
0.553348
0.438479
0.411585
0.408654
0.420448
0.391649
0.393489
0.408495
0.366971
0.43532
0.404277
0.372177
0.477353
0.305628