/*--------------------------------*- C++ -*----------------------------------*\
  =========                 |
  \\      /  F ield         | OpenFOAM: The Open Source CFD Toolbox
   \\    /   O peration     | Website:  https://openfoam.org
    \\  /    A nd           | Version:  7
     \\/     M anipulation  |
\*---------------------------------------------------------------------------*/
FoamFile
{
    version     2.0;
    format      ascii;
    class       surfaceScalarField;
    location    "1.2e-07";
    object      alphaPhi;
}
// * * * * * * * * * * * * * * * * * * * * * * * * * * * * * * * * * * * * * //

dimensions      [0 3 -1 0 0 0 0];

internalField   uniform 0;

boundaryField
{
    frontAndBack
    {
        type            empty;
        value           nonuniform 0();
    }
    walls
    {
        type            calculated;
        value           uniform 0;
    }
    upperInlet
    {
        type            calculated;
        value           uniform 0;
    }
    lowerInlet
    {
        type            calculated;
        value           uniform 0;
    }
    rightInlet
    {
        type            calculated;
        value           uniform 0;
    }
    leftInlet
    {
        type            calculated;
        value           uniform 0;
    }
    walls2
    {
        type            calculated;
        value           uniform 0;
    }
}


// ************************************************************************* //
