/*--------------------------------*- C++ -*----------------------------------*\
  =========                 |
  \\      /  F ield         | OpenFOAM: The Open Source CFD Toolbox
   \\    /   O peration     | Website:  https://openfoam.org
    \\  /    A nd           | Version:  7
     \\/     M anipulation  |
\*---------------------------------------------------------------------------*/
FoamFile
{
    version     2.0;
    format      ascii;
    class       volScalarField;
    location    "1.2e-07";
    object      p;
}
// * * * * * * * * * * * * * * * * * * * * * * * * * * * * * * * * * * * * * //

dimensions      [1 -1 -2 0 0 0 0];

internalField   nonuniform List<scalar> 
196256
(
0.972778
0.729847
0.861325
0.96052
1.03219
1.10983
1.07465
1.12926
1.07926
1.1037
1.0991
1.12286
1.08339
1.0899
1.18853
1.12555
1.03576
1.01014
1.02724
1.00547
0.865498
0.627156
1.03656
0.819586
0.964136
1.06259
1.11933
1.19271
1.28717
1.37892
2.79738
4.17811
4.84734
5.20973
5.43546
5.47929
5.58534
5.64378
5.66573
5.6618
5.63598
5.59066
5.64801
5.62606
5.50389
5.48541
5.36646
5.22343
5.1233
4.92766
4.59493
3.74508
1.85737
1.31488
1.19046
1.14846
1.19155
1.1237
0.912563
0.612095
0.976028
0.764834
1.01389
1.09184
1.26057
1.51135
3.06289
4.25907
5.00699
5.48958
5.77211
5.91656
6.35421
6.70156
7.53171
8.45499
9.08366
9.45325
9.70362
9.82896
10.0273
10.201
10.2864
10.3298
10.2814
10.2556
10.2886
10.1709
10.0862
9.96737
9.91159
9.78264
9.43025
9.1316
8.66124
7.91446
6.93203
6.28703
6.09148
5.85947
5.5714
5.19034
4.82706
3.90547
1.88149
1.35164
1.2816
1.15246
0.91784
0.650372
0.912558
0.797052
1.06069
1.37908
2.85009
4.3071
5.00713
5.60662
6.03396
6.52994
7.55242
8.59866
9.33613
9.90422
10.3133
10.7165
11.1306
11.6338
12.2988
12.8546
13.3061
13.6541
14.0402
14.3398
14.4366
14.5079
14.7063
14.833
14.733
14.748
14.6746
14.6343
14.4957
14.4976
14.3396
14.0298
13.7933
13.405
12.9018
12.4444
11.9285
11.2569
10.6683
10.1876
9.88079
9.5259
8.97321
8.08547
7.00406
6.30092
5.88506
5.38266
4.98004
3.89296
1.8417
1.23419
1.03066
0.609725
1.01349
0.821521
1.04881
1.227
2.74459
4.39215
5.31875
6.17022
7.31943
8.30613
9.05013
9.67645
10.4441
11.2664
12.154
12.9422
13.686
14.3007
14.756
15.2788
15.7966
16.3347
16.8671
17.3215
17.7503
18.2835
18.582
18.8648
19.0266
19.3583
19.3889
19.3234
19.3612
19.3772
19.3257
19.2328
19.2048
18.9515
18.815
18.7095
18.4015
18.0076
17.5027
16.9645
16.6214
16.0471
15.5683
14.9803
14.4402
13.8656
13.2571
12.5253
11.8191
11.1666
10.4886
9.66348
8.88683
7.9678
7.0532
6.12117
5.06468
3.85423
1.66509
1.11653
0.950714
0.645519
1.03285
0.840503
1.07963
1.37378
2.80396
4.47575
5.4745
6.39644
7.49771
8.64052
9.77102
10.8092
11.7184
12.6558
13.5326
14.2874
15.0185
15.9011
16.6038
17.4061
18.1725
18.8108
19.3103
19.926
20.2964
20.9376
21.5726
22.0964
22.4772
22.8104
23.1806
23.3477
23.7087
23.9122
24.0845
24.0872
24.0507
24.0259
23.9828
23.8342
23.7866
23.731
23.6256
23.3881
22.9214
22.5696
22.0063
21.6003
21.2197
20.6963
20.1486
19.7431
19.1526
18.4547
17.8675
17.167
16.4441
15.6412
14.9347
14.2866
13.4558
12.4469
11.3041
10.4234
9.36233
8.14158
6.84771
5.82088
5.00673
3.85544
1.61988
1.14185
0.91842
0.600554
0.989414
0.842488
1.28655
2.77398
4.3016
5.24285
6.17324
7.33645
8.74415
9.77775
10.8116
11.9789
13.1654
14.3072
15.2441
16.1851
17.2202
18.2114
19.0251
19.6906
20.5328
21.2725
21.9751
22.7258
23.462
24.0854
24.48
25.1804
25.6177
25.9696
26.5482
27.0037
27.3653
27.6376
28.0295
28.287
28.5282
28.5551
28.7504
28.8634
28.7826
28.7849
28.6396
28.4504
28.2131
28.2142
28.0282
27.8711
27.3653
26.8572
26.2639
25.7575
25.3969
24.8668
24.3984
23.9328
23.2768
22.4938
21.8623
21.1502
20.3939
19.4752
18.6836
17.8338
17.0194
15.9895
14.8752
13.7647
12.5674
11.4401
10.2877
9.22266
7.98008
6.75322
5.69058
4.77807
3.61946
1.51695
0.994115
0.617221
0.945569
0.852152
1.30061
2.77011
4.49411
5.65374
7.037
8.48307
9.68931
10.7068
11.9239
13.0559
14.293
15.4673
16.5107
17.7908
18.8748
19.9146
20.9544
21.9642
22.8293
23.6105
24.3845
25.1004
25.9829
26.6937
27.358
28.0412
28.5445
29.2127
29.7196
30.2337
30.7067
31.193
31.5912
31.9393
32.3544
32.7585
32.9567
33.1624
33.2394
33.3756
33.6036
33.7551
33.5739
33.4005
33.2895
33.2118
32.8382
32.7384
32.3855
32.0925
31.6595
31.1963
30.6992
30.1896
29.627
29.171
28.4799
27.8206
27.0995
26.4509
25.5747
24.8047
23.9683
23.2218
22.3909
21.4707
20.4897
19.3571
18.3398
17.2374
16.121
14.9041
13.6469
12.5848
11.2987
10.181
9.09138
7.81257
6.37303
5.0362
3.71015
1.62594
0.989818
0.608969
1.11034
1.09381
2.69961
4.49988
5.69562
7.02831
8.57848
9.96366
11.3135
12.7826
13.9135
15.1591
16.4375
17.6694
18.9644
20.0308
21.1583
22.2535
23.3207
24.4495
25.4912
26.41
27.3348
28.3111
29.2465
29.9143
30.6194
31.4617
32.0343
32.6615
33.3862
33.9222
34.4275
35.0051
35.6137
35.956
36.4042
36.726
37.0613
37.277
37.6177
37.7958
37.9677
38.0978
38.2824
38.2469
38.2833
38.3963
38.1778
38.0949
37.7887
37.381
37.1053
36.7038
36.4172
35.9541
35.4153
34.9762
34.4514
33.687
33.1979
32.5476
31.7537
30.9254
30.1916
29.4011
28.6543
27.7847
26.8807
25.8535
24.9835
24.0271
23.0204
21.9453
20.5926
19.4431
18.1495
16.9249
15.8466
14.6407
13.4674
12.1293
10.6703
9.34549
7.85232
6.32162
5.08204
3.62545
1.55505
0.705092
0.97922
0.797747
1.18379
2.93274
5.02777
6.81262
8.43036
9.98452
11.3688
12.7626
14.2538
15.7306
16.8843
18.2684
19.6932
20.963
22.1734
23.4125
24.5103
25.7939
26.9056
28.1245
29.1154
30.1214
31.179
32.1057
33.009
33.7747
34.5462
35.3941
36.1739
36.9736
37.4279
38.1267
38.8625
39.5042
39.9064
40.3732
40.8957
41.2549
41.591
41.8096
42.1165
42.3482
42.5808
42.815
42.9329
42.9196
42.9933
43.0407
42.93
43.0114
42.8544
42.652
42.2441
41.9788
41.5408
41.213
40.7317
40.203
39.6065
39.0143
38.4589
37.8276
37.1851
36.5838
35.7688
34.9238
34.1106
33.3796
32.4129
31.5248
30.6695
29.6756
28.7134
27.6107
26.4094
25.3033
24.0552
22.9017
21.661
20.3701
19.1142
17.8189
16.48
15.0359
13.634
12.2693
10.5565
9.16201
7.60314
5.87324
4.07182
1.82401
1.09968
0.633122
1.04052
1.07044
2.63884
4.42031
5.88401
7.45729
9.27027
10.9336
12.566
14.1202
15.5953
17.1359
18.6278
20.0327
21.3587
22.8654
24.1376
25.4013
26.7614
28.0794
29.3577
30.4729
31.6452
32.7796
33.8088
34.7584
35.7383
36.6488
37.5955
38.4538
39.3846
40.1137
40.8161
41.5202
42.2171
42.8811
43.443
44.1787
44.7583
45.2966
45.6356
46.0977
46.4338
46.6914
46.9745
47.2253
47.3991
47.586
47.677
47.7301
47.8466
47.9383
48.0619
47.9215
47.6778
47.3798
47.1582
46.7162
46.5097
46.005
45.5619
45.0389
44.504
43.8757
43.3668
42.5895
41.8618
41.1761
40.4893
39.723
38.8808
38.0405
37.2683
36.3495
35.3791
34.3089
33.3989
32.2247
31.1636
29.8918
28.7107
27.4756
26.1678
24.969
23.5228
22.2783
20.8427
19.5506
18.1122
16.6407
15.1407
13.457
11.8878
10.0659
8.25491
6.62341
5.28786
3.86359
1.53983
0.727639
1.06153
1.04916
2.85703
4.8702
6.807
8.56849
10.1343
11.842
13.5594
15.2923
17.0279
18.5327
20.0654
21.517
23.0554
24.3885
26.0065
27.3775
28.6973
30.0789
31.4304
32.5328
33.8825
35.1717
36.2755
37.3435
38.3716
39.3864
40.5209
41.3773
42.3604
43.2408
44.0933
44.9047
45.6599
46.3549
47.1277
47.7301
48.3847
49.0125
49.6145
50.1611
50.5462
50.911
51.3131
51.6934
51.9197
52.1784
52.2728
52.3757
52.6348
52.6351
52.7345
52.7367
52.7572
52.5965
52.3297
52.1152
51.898
51.6863
51.38
50.8804
50.322
49.7709
49.3035
48.8525
48.0775
47.387
46.7764
46.085
45.3105
44.5657
43.7157
42.8031
41.921
41.061
39.9249
38.9384
37.8383
36.8438
35.6818
34.5477
33.255
32.0178
30.809
29.3918
28.0619
26.6573
25.4561
23.9716
22.4223
20.9363
19.419
17.8482
16.1375
14.4565
12.7946
10.9105
9.27824
7.61513
5.8252
3.95313
1.51536
0.738165
1.19834
1.10147
3.00901
5.11057
7.01401
8.93452
10.7923
12.5942
14.405
16.1531
17.9064
19.5936
21.2348
22.8015
24.2913
25.8462
27.2666
28.7682
30.3714
31.8226
33.3199
34.6992
36.0297
37.2627
38.5202
39.6814
40.9387
42.084
43.1679
44.2663
45.1444
46.0853
47.0711
48.0199
48.8623
49.7427
50.5053
51.1665
51.8647
52.5753
53.2914
53.8891
54.4697
54.9048
55.3494
55.8021
56.2104
56.6407
56.9165
56.9279
57.2089
57.405
57.4851
57.6218
57.7264
57.7729
57.7149
57.6543
57.395
57.1788
56.9049
56.5364
56.2001
55.836
55.3425
54.7648
54.1484
53.5557
53.0147
52.4082
51.6371
50.9185
50.1351
49.2335
48.583
47.7231
46.7406
45.7388
44.7637
43.6112
42.417
41.3355
40.2851
39.0718
37.9112
36.506
35.1631
33.8652
32.4761
31.1193
29.6902
28.3116
26.8187
25.2617
23.691
22.1928
20.5236
18.7843
17.0765
15.3287
13.5092
11.7833
9.9304
8.09845
6.12714
4.20481
1.67888
0.811138
0.850303
0.844277
1.2848
3.17904
5.27541
7.31803
9.24524
11.1757
13.0103
14.9958
16.8531
18.7838
20.5026
22.2662
23.9255
25.558
27.1173
28.731
30.3451
31.8822
33.3973
34.955
36.4218
37.9329
39.1299
40.4925
41.8386
43.1814
44.4854
45.6869
46.8472
47.8699
48.881
49.9974
51.0859
51.9861
52.8114
53.7194
54.6037
55.2437
56.0897
56.7303
57.3601
58.046
58.623
59.1841
59.7125
60.2254
60.6852
61.2096
61.4988
61.7297
62.0535
62.2294
62.3378
62.4406
62.5268
62.5824
62.6172
62.5808
62.476
62.4436
62.1832
61.7319
61.4908
61.1474
60.7238
60.2464
59.6958
59.1161
58.5567
57.8265
57.2039
56.4932
55.7907
55.0944
54.2554
53.3909
52.5688
51.5807
50.443
49.4327
48.312
47.3091
46.033
44.9699
43.8152
42.5247
41.1509
39.8941
38.5319
37.0325
35.6576
34.2356
32.8117
31.339
29.8296
28.1651
26.4274
24.745
23.0256
21.3413
19.6145
17.6774
15.9619
14.116
12.242
10.3173
8.35132
6.25366
4.24028
1.72473
1.02121
0.540765
1.22348
2.2845
4.18579
5.78689
7.5286
9.43709
11.4172
13.3549
15.3542
17.3658
19.3871
21.1988
23.0695
24.8615
26.4606
28.1314
29.8336
31.477
33.1674
34.811
36.5334
38.005
39.5684
41.0413
42.4767
43.8619
45.2508
46.5305
47.74
48.9458
50.2469
51.379
52.6304
53.7134
54.7552
55.821
56.7301
57.6639
58.6135
59.4952
60.3065
61.0078
61.8129
62.2963
62.9066
63.4458
64.0056
64.6765
65.254
65.7135
66.0605
66.4306
66.6936
67.1216
67.3264
67.371
67.4653
67.4937
67.6108
67.6423
67.6179
67.4753
67.3373
67.1773
66.9666
66.4706
66.1302
65.7943
65.2787
64.8411
64.1585
63.4831
62.8762
62.2434
61.5552
60.7729
59.9276
59.0967
58.259
57.398
56.2632
55.169
54.0855
53.1226
51.9757
50.814
49.6382
48.4785
47.318
45.9723
44.4677
43.0119
41.6153
40.2214
38.8304
37.3187
35.7935
34.127
32.4868
30.8932
29.2684
27.4223
25.6231
23.828
22.0601
20.1087
18.3529
16.4967
14.5804
12.5409
10.3665
8.31193
6.39838
4.86818
3.30702
1.06213
1.16255
1.17305
3.22803
5.78321
7.99533
9.75597
11.5131
13.4729
15.5279
17.6511
19.7051
21.6435
23.6245
25.4861
27.4224
29.0966
30.8703
32.6159
34.2342
36.1138
37.8113
39.3847
41.0485
42.674
44.2072
45.7284
47.0442
48.4584
49.8711
51.1991
52.5789
53.7336
55.0682
56.3215
57.3968
58.5684
59.5778
60.6466
61.6557
62.6977
63.5831
64.4479
65.1843
66.1536
66.7926
67.5378
68.0226
68.6191
69.2762
69.7636
70.2382
70.9035
71.2771
71.5051
71.9771
72.1541
72.3013
72.5216
72.6507
72.8535
72.7699
72.6262
72.639
72.556
72.4631
72.1563
71.9142
71.639
71.1525
70.6954
70.2935
69.834
69.2907
68.5991
67.8363
67.2017
66.4307
65.7046
64.9803
64.0843
63.0776
62.1839
61.1534
60.0781
59.0586
57.8467
56.7698
55.6022
54.3657
53.1306
51.6951
50.4489
49.0642
47.8354
46.4193
44.9206
43.4143
41.7857
40.221
38.5831
36.9135
35.3492
33.6948
31.9149
30.189
28.3464
26.5522
24.6465
22.6156
20.5919
18.7124
16.7337
14.6969
12.7188
10.7155
8.84664
6.85482
4.4701
1.67925
0.742712
1.02732
1.07734
2.95227
5.16417
7.39475
9.5775
11.7735
13.8036
15.7952
17.8488
19.7182
21.8239
23.8991
25.9288
27.9356
29.8151
31.6278
33.4664
35.2542
37.0922
38.9675
40.4918
42.2341
43.9364
45.6115
47.2724
48.7918
50.1755
51.6911
53.0573
54.4492
55.9243
57.1517
58.5569
59.727
60.8681
62.1381
63.2619
64.413
65.4373
66.4246
67.4567
68.4933
69.2964
70.3498
71.1395
71.9072
72.6879
73.2649
73.8754
74.5218
74.9286
75.4135
75.8975
76.3011
76.8504
77.0666
77.2126
77.3935
77.6562
77.7403
77.7574
77.9235
77.8443
77.6841
77.6724
77.3815
77.2073
76.9678
76.6931
76.3478
75.9257
75.4222
74.8346
74.2126
73.5416
72.9518
72.2475
71.5156
70.6653
69.8177
68.9969
68.0229
67.0444
66.1962
65.1502
64.0826
62.9211
61.6906
60.4126
59.2406
57.9186
56.5565
55.1521
53.8318
52.4838
50.9152
49.4814
47.9448
46.4336
44.8363
43.2506
41.6303
39.7271
38.1149
36.3347
34.5839
32.7969
30.9547
29.0053
26.9947
24.8822
22.9738
20.917
19.0244
16.9537
14.9332
12.8602
10.7355
8.45974
6.23084
4.12004
1.52741
0.722751
0.961698
0.966154
2.86872
5.11202
7.01905
9.20284
11.5368
13.7536
15.8372
17.9075
19.9507
21.9922
24.0617
26.2296
28.2549
30.2413
32.2324
34.0912
36.0097
37.8689
39.7851
41.514
43.1918
45.1095
46.8281
48.5942
50.1722
51.7607
53.3075
54.8338
56.3025
57.7723
59.2236
60.5938
61.9703
63.2129
64.5365
65.8608
67.1035
68.2898
69.517
70.615
71.6914
72.6685
73.585
74.494
75.3114
76.0559
77.0061
77.7011
78.3935
79.0519
79.568
80.138
80.661
81.0856
81.4206
81.7762
82.111
82.4239
82.5464
82.7254
82.8204
83.0078
83.0543
83.0536
82.8623
82.7709
82.6717
82.2972
81.8664
81.6765
81.3712
80.9794
80.4541
79.7763
79.1589
78.7342
77.9825
77.1656
76.4967
75.6108
74.7635
73.8264
72.9296
71.9531
70.9927
69.9397
68.7842
67.7516
66.6368
65.4583
64.1327
62.7628
61.5675
60.1898
58.7036
57.1711
55.8049
54.1886
52.6858
51.0336
49.4311
47.7673
46.1182
44.424
42.6254
40.881
39.1206
37.1525
35.1912
33.2567
31.3728
29.3336
27.273
25.2446
23.2314
21.26
19.1846
17.0871
14.8846
12.4885
10.2185
8.27448
6.22646
4.20375
1.66446
0.716712
1.26433
2.40511
4.64902
6.77766
8.91795
11.1192
13.4057
15.6317
17.8199
19.9228
22.0586
24.1299
26.1822
28.3187
30.3751
32.5017
34.4943
36.3871
38.3721
40.3802
42.184
44.0942
46.1403
47.9129
49.6711
51.4636
53.2145
54.7859
56.3487
57.9274
59.4524
61.0082
62.5871
63.9907
65.3606
66.8821
68.247
69.6498
70.9301
72.0559
73.3063
74.4218
75.5707
76.7217
77.6993
78.7284
79.6006
80.5797
81.4977
82.2886
83.0052
83.7053
84.2721
84.835
85.3904
85.8915
86.2084
86.6536
87.0506
87.2977
87.5696
87.9044
87.9724
88.1366
88.1083
88.1049
88.128
88.1265
87.9217
87.7493
87.6006
87.2624
86.824
86.401
86.0417
85.5154
85.0276
84.3124
83.6278
83.0142
82.3587
81.5332
80.6393
79.7864
78.797
77.8134
76.9174
76.0274
74.9579
73.8938
72.8087
71.5813
70.3584
68.9843
67.8158
66.2997
64.959
63.5489
61.9467
60.403
58.9757
57.4139
55.8271
54.0441
52.3431
50.6912
48.9519
47.1707
45.2686
43.5253
41.6153
39.6349
37.4543
35.6197
33.6746
31.663
29.693
27.63
25.4804
23.3921
21.2563
19.0083
16.8159
14.3869
12.1613
10.1268
8.04975
5.92531
3.80093
1.17261
1.10582
1.11165
3.20074
5.85659
8.45628
10.689
12.9275
15.229
17.3834
19.5814
21.7746
24.0138
26.1503
28.2726
30.4781
32.5878
34.7052
36.6592
38.7679
40.7553
42.7316
44.7323
46.6791
48.7283
50.6131
52.4454
54.2645
56.17
57.7868
59.528
61.2488
62.7734
64.2165
65.8505
67.388
68.9596
70.3459
71.7868
73.129
74.4448
75.8204
76.8629
78.1516
79.4684
80.6406
81.6989
82.8082
83.8716
84.7774
85.6629
86.3695
87.1905
87.9305
88.8249
89.5751
90.2204
90.6705
91.0822
91.5805
92.0582
92.4021
92.6445
92.9542
93.1177
93.2109
93.3586
93.5764
93.5186
93.5279
93.3862
93.1595
92.9216
92.77
92.5253
92.1212
91.6999
91.2676
90.6803
90.1307
89.4947
88.794
88.2578
87.457
86.7266
85.7966
84.909
84.0632
82.9762
81.942
80.9509
80.0365
78.9268
77.6624
76.499
75.2805
74.0544
72.5505
71.2259
69.77
68.3061
66.8058
65.1193
63.6935
62.0733
60.4302
58.7805
56.946
55.2444
53.4608
51.6921
49.7928
47.8781
46.0075
44.0553
42.1003
40.1506
38.1011
36.1047
34.0655
31.9237
29.661
27.5476
25.3265
23.2129
20.9702
18.783
16.4559
14.1686
11.8931
9.68301
7.47178
4.72235
1.63407
0.682913
0.987405
1.07526
2.93656
5.10417
7.34322
9.80841
12.2324
14.6189
16.7378
19.0916
21.4683
23.7224
25.9272
28.2502
30.3181
32.491
34.6888
36.8507
39.1132
41.1835
43.1742
45.3042
47.1618
49.2697
51.3162
53.2045
55.0036
57.0179
58.8771
60.6693
62.4247
64.1094
65.8994
67.4667
69.1866
70.7478
72.2903
73.6701
75.2055
76.5982
78.1319
79.3358
80.5695
81.9627
83.1845
84.5462
85.6681
86.8326
87.926
88.8452
89.7987
90.6563
91.4278
92.2676
93.0741
93.9409
94.7525
95.4025
95.819
96.3771
96.9658
97.4268
97.6923
97.9366
98.0969
98.3187
98.4959
98.6736
98.7678
98.8011
98.7464
98.6987
98.5236
98.2186
98.0467
97.8708
97.4548
96.9914
96.2823
95.9426
95.3726
94.8426
94.0989
93.3778
92.6149
91.8425
91.0135
90.095
89.0505
88.1125
87.123
86.0732
85.0505
83.9612
82.759
81.5088
80.19
78.9615
77.5795
76.1961
74.7577
73.246
71.637
70.0723
68.2928
66.7665
65.1375
63.4344
61.7766
59.8834
58.1445
56.2392
54.4344
52.6156
50.6249
48.6503
46.6349
44.5665
42.5077
40.3151
38.2861
36.1008
34.0441
31.7394
29.5321
27.2471
24.9532
22.7378
20.5108
18.137
15.9181
13.7033
11.1946
8.83663
6.36498
4.08948
1.57616
0.680428
1.23977
2.52603
4.60021
6.76489
9.07365
11.3985
13.8476
16.1189
18.4931
20.8649
23.2429
25.5165
27.842
29.9779
32.3581
34.5124
36.6899
39.0516
41.282
43.365
45.5816
47.5773
49.4927
51.6862
53.7579
55.786
57.7668
59.762
61.6824
63.5563
65.3584
67.2458
69.0102
70.6423
72.3258
73.9776
75.5797
77.1118
78.5851
80.0386
81.6365
83.1018
84.5212
85.7301
87.0731
88.4365
89.6271
90.7257
92.0762
93.1527
94.0626
95.0982
96.0222
97.0301
97.6503
98.4667
99.1814
99.9609
100.484
101.21
101.785
102.23
102.683
102.939
103.256
103.402
103.594
104.002
104.131
104.033
104.034
104.06
104.074
103.901
103.712
103.557
103.112
102.69
102.241
101.793
101.207
100.746
100.009
99.4579
98.5868
97.8789
96.944
96.4551
95.3624
94.5109
93.4715
92.3449
91.2566
90.1539
88.9257
87.8067
86.4764
85.2242
83.8271
82.5968
81.1511
79.8461
78.1462
76.6092
74.8927
73.238
71.5693
69.8893
68.0979
66.4363
64.639
62.829
60.8587
58.8634
56.9406
55.1771
53.1719
51.1665
49.1545
46.7767
44.7336
42.5668
40.4478
38.1704
35.9961
33.6692
31.4862
29.1524
26.8196
24.4534
22.2317
19.9962
17.6628
15.2258
12.9019
10.4748
8.08056
5.67919
3.63968
1.09682
0.972874
1.03008
3.06573
5.83418
8.21813
10.5678
13.0269
15.336
17.8994
20.1449
22.5752
25.0315
27.4098
29.728
31.9385
34.3493
36.6153
38.8134
41.077
43.2916
45.423
47.619
49.8117
52.002
54.1219
56.2775
58.2307
60.3119
62.4108
64.2213
66.2745
68.2369
70.0701
71.8514
73.6536
75.2923
77.2093
78.8284
80.5722
82.2393
83.6848
85.27
86.7337
88.2134
89.5606
91.0004
92.2798
93.54
94.7358
95.9039
97.0564
98.0898
99.2456
100.277
101.197
102.109
103.014
103.895
104.601
105.147
105.804
106.51
107.101
107.488
107.807
108.22
108.539
109.036
109.227
109.252
109.399
109.375
109.297
109.382
109.318
109.214
109.147
108.821
108.605
108.143
107.664
107.219
106.675
106.035
105.518
104.731
103.967
103.193
102.393
101.422
100.74
99.6731
98.6255
97.6576
96.5216
95.2997
94.06
92.8755
91.6141
90.2658
89.0382
87.564
86.2343
84.5364
83.1414
81.5145
79.8526
78.3152
76.6358
74.8851
73.0229
71.0517
69.2265
67.3847
65.5876
63.7044
61.7234
59.6376
57.5555
55.4971
53.534
51.4423
49.1589
47.0014
44.8404
42.6612
40.4395
38.2582
35.8164
33.4603
31.085
28.6204
26.296
24.014
21.7349
19.4188
17.031
14.5283
11.9724
9.60672
7.12981
4.65062
1.63272
0.670739
1.26839
2.51145
4.74626
7.0761
9.4985
12.0259
14.5321
17.0702
19.4854
21.8102
24.1501
26.6787
29.0966
31.5516
33.8541
36.1846
38.4738
40.7302
42.9453
45.2289
47.6344
49.7747
52.0104
54.183
56.3519
58.6748
60.7718
62.9382
65.0507
66.8573
68.9251
70.9819
72.8971
74.8003
76.6022
78.3403
80.2347
81.9612
83.7689
85.5043
87.0566
88.7257
90.4244
91.9032
93.256
94.6186
96.1211
97.4166
98.6607
99.8381
101.198
102.191
103.204
104.47
105.592
106.557
107.619
108.43
109.136
109.929
110.61
111.191
111.766
112.31
112.974
113.302
113.741
114.039
114.298
114.571
114.66
114.684
114.793
114.733
114.708
114.696
114.71
114.511
114.123
113.835
113.646
113.193
112.664
112.019
111.379
110.852
110.057
109.297
108.503
107.683
106.953
106.002
105.126
104.057
102.868
101.69
100.582
99.3379
98.0456
96.944
95.4711
94.0182
92.6174
90.9503
89.6515
87.9947
86.5304
84.8964
83.2499
81.4564
79.6775
77.864
75.965
74.0005
72.1428
70.2269
68.2003
66.1955
64.2177
62.048
59.9694
57.861
55.72
53.4557
51.2738
49.0977
46.9199
44.6284
42.5229
40.1908
37.7092
35.3157
32.9871
30.5048
27.9867
25.6763
23.2607
20.8468
18.375
15.862
13.3336
10.9485
8.31623
5.86996
3.56687
1.04211
1.32034
2.89979
5.73399
8.32551
10.8018
13.3111
15.8883
18.4714
21.0501
23.6335
25.9922
28.5325
30.8771
33.2729
35.5631
37.971
40.2615
42.7247
44.9828
47.2928
49.5231
51.9124
54.2141
56.4586
58.6507
60.9911
63.0972
65.3505
67.4922
69.6149
71.6294
73.687
75.8405
77.6715
79.5255
81.3824
83.3156
85.3123
86.9792
88.7375
90.4527
92.1376
93.8162
95.3332
96.8556
98.2938
99.8021
101.187
102.431
103.858
105.171
106.403
107.457
108.745
109.939
110.9
111.814
112.823
113.722
114.582
115.32
116.093
116.628
117.178
117.914
118.458
118.897
119.318
119.758
119.871
119.992
120.358
120.41
120.338
120.524
120.24
120.131
119.976
119.789
119.486
119.133
118.833
118.528
117.995
117.508
116.803
116.246
115.708
114.908
114.087
113.386
112.306
111.377
110.395
109.265
108.156
106.97
105.622
104.418
103.156
101.847
100.594
99.0964
97.7523
96.2526
94.5216
93.0965
91.4436
89.7399
88.0698
86.2541
84.419
82.6419
80.8444
78.7961
76.7794
74.8552
72.9749
70.8728
68.7567
66.5763
64.4852
62.4292
60.2116
57.9577
55.7361
53.5274
51.2071
49.0194
46.7667
44.4192
42.0222
39.7529
37.3081
34.8338
32.221
29.693
27.2819
24.8992
22.3544
19.8217
17.2371
14.555
12.0134
9.44799
6.88734
4.29438
1.22606
0.944274
0.994096
3.30337
6.25714
9.23273
11.9039
14.6047
17.2926
19.8949
22.3736
25.0354
27.5541
29.991
32.4576
34.8834
37.3856
39.846
42.0805
44.5544
46.8817
49.2339
51.6376
54.0022
56.3925
58.7857
61.0141
63.2816
65.5699
67.7713
69.9515
72.2818
74.2742
76.2917
78.5321
80.4852
82.4313
84.2308
86.2616
88.2067
89.924
91.864
93.6208
95.4464
97.0838
98.7181
100.468
102.172
103.637
104.953
106.444
107.902
109.175
110.483
111.711
113.044
114.289
115.408
116.379
117.482
118.258
119.064
119.887
120.778
121.415
122.19
122.934
123.544
124.01
124.53
124.849
125.108
125.414
125.646
125.688
125.812
125.937
125.894
125.943
125.689
125.507
125.154
125.024
124.73
124.374
123.916
123.618
123.08
122.49
121.697
121.094
120.381
119.576
118.449
117.654
116.726
115.685
114.757
113.538
112.402
111.209
109.746
108.436
107.212
105.854
104.417
102.818
101.307
99.6986
97.9935
96.3043
94.5891
92.9628
91.2363
89.4032
87.4752
85.5349
83.6303
81.5774
79.6057
77.5544
75.5414
73.5213
71.4015
69.1263
66.993
64.5644
62.2743
60.0525
57.8078
55.5429
53.1617
50.8109
48.6169
46.2807
43.86
41.43
38.9352
36.4563
33.7655
31.3667
28.8273
26.3623
23.7462
21.2269
18.5614
15.8301
13.1988
10.4516
7.69995
4.86971
1.64466
0.676695
1.13496
2.43731
4.71692
7.22903
10.0187
12.9265
15.5795
18.2246
21.0093
23.5178
26.1864
28.8496
31.377
33.8292
36.3255
39.0067
41.5614
44.0183
46.5134
48.824
51.3199
53.7458
56.0714
58.6126
60.8541
63.2087
65.6295
67.9169
70.2469
72.4607
74.6861
76.924
78.9522
81.1431
83.2236
85.2276
87.1757
89.1787
91.2494
93.1101
95.1527
96.9386
98.8319
100.562
102.338
104.057
105.716
107.254
108.804
110.384
111.72
113.045
114.458
115.749
116.998
118.352
119.682
120.757
121.76
122.729
123.643
124.546
125.41
126.136
126.926
127.711
128.424
128.97
129.489
130.024
130.527
130.835
131.099
131.312
131.327
131.445
131.514
131.519
131.506
131.539
131.22
131.058
130.58
130.388
129.975
129.625
129.044
128.563
128.04
127.366
126.724
126.063
125.142
124.076
123.096
122.131
121.04
120.054
118.916
117.683
116.565
115.243
113.872
112.412
110.978
109.568
107.935
106.447
104.842
103.098
101.206
99.5307
97.7824
95.9793
94.2215
92.2888
90.2988
88.2557
86.2932
84.1261
82.2143
80.2117
78.1184
75.9519
73.709
71.5166
69.2755
66.8675
64.4887
62.2125
59.915
57.6375
55.2332
52.8615
50.3682
47.888
45.4616
42.9919
40.5537
37.9403
35.2803
32.7673
30.3237
27.7122
25.0042
22.3221
19.6058
16.7921
13.9124
11.243
8.47868
5.7604
3.56596
1.06937
1.32257
2.71359
5.55499
8.20962
10.8217
13.7351
16.4902
19.131
22.0034
24.7035
27.3331
30.0702
32.7021
35.2137
37.678
40.3999
42.8862
45.5999
48.0874
50.6169
53.1328
55.6121
58.0623
60.4636
62.9225
65.431
67.8557
70.2161
72.6589
74.8489
77.1068
79.3029
81.4167
83.7019
85.9635
88.0417
90.0963
92.0773
94.1583
96.1801
98.23
100.049
102.001
103.775
105.671
107.409
109.112
110.697
112.353
113.804
115.376
116.894
118.331
119.794
121.319
122.544
123.697
125.013
125.942
127.068
128.24
129.243
130.093
131.092
131.879
132.577
133.389
134.234
134.853
135.229
135.621
136.031
136.281
136.679
137.026
137.238
137.33
137.441
137.409
137.351
137.24
137.06
136.767
136.348
135.966
135.506
135.109
134.664
134.263
133.788
133.064
132.385
131.471
130.546
129.555
128.512
127.557
126.524
125.491
124.385
122.962
121.787
120.453
119.101
117.545
116.2
114.674
113.123
111.413
109.812
108.368
106.666
104.692
102.899
101.081
98.9974
97.0391
95.1762
93.0078
91.1108
89.0038
86.9631
84.7442
82.682
80.4674
78.2783
75.9948
73.8846
71.5015
69.2085
66.7434
64.3103
61.9311
59.4465
57.0388
54.6076
52.0541
49.5535
47.1659
44.6006
42.086
39.4528
36.8006
34.153
31.6928
28.9938
26.2284
23.3961
20.7335
17.8688
14.9141
12.2497
9.50089
6.82485
4.16537
1.26307
1.69143
3.0609
6.1026
8.94193
11.6519
14.5249
17.5006
20.2398
22.9754
25.7266
28.5021
31.1514
34.0466
36.6141
39.1616
41.837
44.481
47.19
49.7059
52.2693
54.8704
57.4027
59.9411
62.5235
64.9499
67.501
69.887
72.337
74.749
77.0583
79.3947
81.7012
84.0546
86.3615
88.5182
90.6296
92.8095
94.8973
96.9757
99.083
101.075
103.075
104.957
106.853
108.831
110.763
112.538
114.117
115.652
117.469
119.021
120.747
122.338
123.822
125.35
126.79
128.082
129.398
130.367
131.499
132.581
133.58
134.636
135.636
136.761
137.529
138.429
139.253
139.859
140.282
140.804
141.24
141.554
142.08
142.56
142.77
142.984
143.048
143.097
143.054
142.796
142.703
142.558
142.379
142.12
141.692
141.35
140.919
140.4
139.837
139.394
138.742
137.954
137.18
136.22
135.291
134.277
133.133
132.083
130.992
129.925
128.617
127.245
125.876
124.317
122.87
121.472
119.919
118.423
116.858
115.22
113.603
111.808
109.949
108.025
106.079
104.184
102.084
100.129
98.2659
96.004
93.7372
91.7893
89.7073
87.5302
85.2566
83.0971
80.6859
78.3502
75.9577
73.64
71.2372
68.8521
66.396
63.8565
61.2111
58.9135
56.2008
53.5691
51.0802
48.5986
46.033
43.3588
40.7408
38.1142
35.5283
32.7994
30.0854
27.2961
24.5515
21.6365
18.796
15.9826
13.2196
10.3608
7.47477
4.58162
1.3127
0.913074
1.069
3.72633
6.70159
9.50267
12.3663
15.3326
18.3002
21.1807
23.8099
26.769
29.6496
32.3977
35.1453
37.9056
40.6785
43.2896
46.0117
48.6741
51.2848
53.8753
56.5921
59.2233
61.7553
64.3851
66.9465
69.3271
71.9722
74.3692
76.7929
79.2225
81.7112
84.1114
86.4458
88.7392
91.0415
93.2579
95.314
97.6407
99.949
102.017
104.084
106.252
108.157
110.201
112.253
114.09
115.922
117.622
119.411
121.218
122.948
124.59
126.224
127.64
129.173
130.589
131.964
133.487
134.877
135.975
137.185
138.248
139.219
140.178
141.255
142.187
143.112
144.059
144.74
145.341
146.026
146.512
146.906
147.385
147.914
148.286
148.624
148.842
149.022
149.024
148.867
148.849
148.628
148.423
148.046
147.978
147.692
147.107
146.698
146.275
145.69
144.987
144.225
143.462
142.628
141.806
140.989
139.831
138.676
137.655
136.461
135.205
134.146
132.72
131.281
129.923
128.512
126.872
125.374
123.752
122.161
120.433
118.683
117.02
115.228
113.139
111.347
109.244
107.254
105.132
103.055
101.184
98.9782
96.6324
94.4886
92.2219
89.9694
87.6894
85.4422
83.1032
80.4944
78.2141
75.6234
73.1016
70.7029
68.2655
65.5997
63.0062
60.5048
57.7942
55.0604
52.5496
50.006
47.4719
44.6706
41.8617
39.2112
36.6543
33.7976
31.0424
28.2708
25.4335
22.657
19.7323
16.876
13.9348
11.0434
8.09398
4.948
1.61925
0.673353
1.16244
2.36092
4.82824
7.42664
10.1367
13.1035
16.0949
19.018
22.0254
24.7894
27.704
30.57
33.4293
36.0822
39.0003
41.86
44.5093
47.2841
50.0436
52.7377
55.3966
58.1183
60.8999
63.4696
66.1723
68.843
71.132
73.6322
76.3076
78.7616
81.2783
83.9353
86.3922
88.7234
91.1488
93.5601
95.8722
98.0939
100.458
102.74
104.89
106.99
109.121
111.241
113.348
115.293
117.284
119.206
120.899
122.67
124.444
126.303
128.135
129.897
131.517
133.125
134.747
136.221
137.636
138.963
140.221
141.543
142.795
144.029
145.107
146.034
147.041
148.006
148.952
149.698
150.349
151.064
151.824
152.377
152.834
153.511
153.922
154.158
154.35
154.605
154.88
154.825
154.777
154.661
154.409
154.405
154.089
153.803
153.395
153.133
152.557
152.104
151.564
150.853
150.114
149.213
148.468
147.667
146.77
145.779
144.667
143.41
142.154
140.816
139.468
138.124
136.732
135.336
133.849
132.337
130.747
129.195
127.436
125.635
123.893
121.927
120.166
118.322
116.466
114.535
112.426
110.196
107.952
105.861
103.741
101.502
99.2219
97.0828
94.6936
92.275
90.0109
87.654
85.1028
82.665
80.1716
77.6967
75.1513
72.6135
70.1609
67.2922
64.7938
62.1419
59.4235
56.6233
54.0958
51.5388
48.8007
46.084
43.1746
40.4989
37.6722
34.7878
32.041
29.2352
26.3262
23.4305
20.5724
17.6342
14.5734
11.7082
8.80494
6.00639
3.60201
1.06294
1.1957
2.67914
5.53178
8.20514
11.0145
13.899
16.8528
19.6891
22.6096
25.6081
28.4921
31.4593
34.2892
37.1882
40.0487
42.7993
45.6992
48.6441
51.413
54.1345
56.8471
59.5092
62.2805
65.0891
67.691
70.4395
72.9502
75.5658
78.2532
80.8381
83.3535
85.8797
88.3872
90.8952
93.2175
95.7752
98.0865
100.707
102.906
105.37
107.693
109.895
111.956
114.246
116.348
118.352
120.442
122.463
124.311
126.286
128.054
129.827
131.774
133.739
135.351
137.027
138.682
140.34
141.749
143.176
144.658
145.842
147.138
148.494
149.719
150.717
152.023
152.86
153.73
154.581
155.483
156.286
157.022
157.628
158.174
158.842
159.262
159.702
160.042
160.466
160.813
160.915
160.963
160.908
160.935
160.682
160.42
160.322
159.991
159.478
159.104
158.617
158.06
157.4
156.645
155.984
155.037
154.346
153.278
152.381
151.348
150.245
149.09
147.874
146.515
145.04
143.705
142.309
140.813
139.289
137.747
136.169
134.455
132.822
130.94
129.104
127.312
125.331
123.418
121.435
119.393
117.454
115.327
113.095
110.812
108.629
106.441
104.186
101.782
99.3651
96.9818
94.5239
92.0835
89.6844
87.1922
84.6549
82.1249
79.6119
77.1654
74.5367
71.7755
69.0518
66.426
63.7983
60.9032
58.1127
55.4859
52.7241
50.0684
47.2865
44.4328
41.6077
38.6906
35.8042
32.962
30.1168
27.1643
24.2955
21.3188
18.2603
15.3871
12.5005
9.74091
6.88486
4.08526
1.16921
1.24047
2.80161
5.84707
8.90907
11.83
14.6693
17.6716
20.56
23.4624
26.5061
29.3322
32.3156
35.1622
38.1258
41.071
43.9024
46.6604
49.8107
52.608
55.4749
58.2925
60.9024
63.7028
66.5125
69.3023
72.0381
74.6924
77.286
79.9952
82.6878
85.3529
87.8764
90.7102
93.1354
95.6545
98.1606
100.715
103.09
105.404
107.896
110.34
112.565