/*--------------------------------*- C++ -*----------------------------------*\
  =========                 |
  \\      /  F ield         | OpenFOAM: The Open Source CFD Toolbox
   \\    /   O peration     | Website:  https://openfoam.org
    \\  /    A nd           | Version:  7
     \\/     M anipulation  |
\*---------------------------------------------------------------------------*/
FoamFile
{
    version     2.0;
    format      ascii;
    class       volScalarField;
    location    "0";
    object      epss;
}
// * * * * * * * * * * * * * * * * * * * * * * * * * * * * * * * * * * * * * //

dimensions      [0 0 0 0 0 0 0];

internalField   nonuniform List<scalar> 
196256
(
0.448707
0.325551
0.405034
0.427488
0.454084
0.340868
0.335365
0.362411
0.449319
0.340225
0.374428
0.453956
0.321066
0.356232
0.354952
0.33746
0.400333
0.32222
0.417455
0.448426
0.434698
0.389294
0.475061
0.457993
0.404699
0.355338
0.326306
0.30931
0.379498
0.44912
0.411144
0.411806
0.453294
0.445725
0.385555
0.47378
0.407885
0.45985
0.314199
0.461227
0.371471
0.361916
0.441745
0.444827
0.435535
0.442699
0.415806
0.431753
0.442361
0.324959
0.265295
0.509315
0.381629
0.516325
0.456833
0.447826
0.330893
0.430832
0.413799
0.433579
0.383717
0.404815
0.354993
0.400591
0.435981
0.368506
0.376465
0.423618
0.369219
0.445623
0.371069
0.367892
0.374492
0.421326
0.317603
0.387974
0.417079
0.385914
0.447052
0.426325
0.326218
0.425466
0.421939
0.366508
0.405354
0.352678
0.41307
0.446345
0.414279
0.377025
0.362301
0.419069
0.478631
0.329819
0.408833
0.472167
0.411985
0.325698
0.355942
0.370904
0.43782
0.358303
0.376979
0.435682
0.35347
0.326081
0.364985
0.427606
0.411804
0.453567
0.402827
0.301557
0.390921
0.396432
0.348575
0.324566
0.329305
0.427572
0.407599
0.385401
0.455015
0.292624
0.417962
0.416593
0.391543
0.343585
0.331501
0.506459
0.384288
0.367861
0.436214
0.335035
0.45094
0.340069
0.334618
0.429067
0.404697
0.41952
0.447211
0.423412
0.404962
0.418137
0.347705
0.419065
0.454034
0.450815
0.362496
0.447504
0.401323
0.378365
0.361285
0.376355
0.344811
0.370717
0.303044
0.351413
0.333692
0.460091
0.38698
0.382899
0.308082
0.342842
0.413605
0.328445
0.359467
0.309323
0.386158
0.345042
0.460667
0.349302
0.357615
0.373833
0.38466
0.322025
0.366856
0.324788
0.321783
0.464492
0.367318
0.334226
0.456103
0.388018
0.457113
0.460633
0.439158
0.387356
0.393477
0.486295
0.470057
0.37525
0.438797
0.397275
0.429159
0.385875
0.391994
0.428016
0.389839
0.308772
0.420663
0.443774
0.389055
0.313524
0.315761
0.419649
0.407519
0.403898
0.41425
0.366693
0.423929
0.34004
0.430888
0.507349
0.429784
0.38679
0.385394
0.325862
0.351668
0.393952
0.328679
0.354079
0.362684
0.444575
0.362017
0.393159
0.407605
0.337678
0.313225
0.3268
0.274428
0.411931
0.430926
0.459798
0.386709
0.424041
0.417793
0.3818
0.403486
0.327158
0.420913
0.509029
0.362748
0.440206
0.471017
0.467179
0.336484
0.414868
0.359513
0.361738
0.360115
0.494056
0.428315
0.457971
0.32578
0.493027
0.317849
0.445005
0.501444
0.399534
0.384048
0.357217
0.42409
0.469912
0.384152
0.496125
0.430626
0.450672
0.372295
0.463814
0.319141
0.386683
0.365798
0.432279
0.426543
0.380187
0.399376
0.406902
0.382721
0.395158
0.377548
0.446268
0.44194
0.384769
0.342187
0.355074
0.400504
0.438054
0.362986
0.429997
0.364544
0.446185
0.40033
0.379628
0.437024
0.465136
0.327741
0.421354
0.348498
0.413448
0.47055
0.340623
0.516536
0.372206
0.374189
0.412311
0.38305
0.346182
0.386257
0.418789
0.420949
0.400322
0.387658
0.39836
0.3457
0.480062
0.372905
0.430974
0.405831
0.336593
0.40646
0.432512
0.471812
0.355378
0.402807
0.31718
0.489733
0.420622
0.370421
0.470791
0.377451
0.418734
0.421878
0.344838
0.406604
0.417317
0.305041
0.388756
0.388034
0.357199
0.390305
0.38853
0.368393
0.418679
0.349715
0.437362
0.345214
0.457674
0.434011
0.410317
0.49246
0.413382
0.381529
0.432241
0.430119
0.290439
0.4013
0.409397
0.452378
0.525967
0.43781
0.406918
0.358202
0.437566
0.310171
0.406542
0.276615
0.43722
0.339633
0.361111
0.405403
0.392287
0.390622
0.448786
0.373565
0.406961
0.372817
0.391262
0.479547
0.454199
0.305362
0.41105
0.430111
0.425789
0.358245
0.346204
0.352966
0.435764
0.421659
0.389194
0.375966
0.523617
0.40555
0.477598
0.42962
0.379926
0.51732
0.437863
0.382506
0.355573
0.403806
0.350834
0.395145
0.378026
0.320691
0.447979
0.42498
0.379234
0.38317
0.428297
0.273576
0.45951
0.396204
0.444567
0.405298
0.334556
0.395808
0.482128
0.341424
0.393687
0.378304
0.411494
0.419419
0.455799
0.368936
0.411786
0.384451
0.417418
0.454776
0.371331
0.414528
0.41986
0.368909
0.450634
0.407545
0.42753
0.359147
0.450117
0.368456
0.300576
0.457079
0.388053
0.344506
0.304861
0.369076
0.359162
0.354173
0.366528
0.436177
0.385653
0.340531
0.367005
0.435092
0.407278
0.377295
0.413811
0.370688
0.331002
0.285259
0.475321
0.416443
0.466345
0.368261
0.337166
0.385161
0.385446
0.438368
0.431205
0.431863
0.382454
0.386552
0.301972
0.447579
0.408323
0.377335
0.34858
0.447065
0.418095
0.333028
0.426141
0.404688
0.460247
0.40393
0.414745
0.405402
0.3486
0.382
0.498362
0.377189
0.419863
0.446764
0.396254
0.342643
0.321357
0.390062
0.403188
0.413174
0.470665
0.424869
0.422661
0.288503
0.400005
0.361625
0.383679
0.550811
0.405847
0.429065
0.358782
0.507901
0.389583
0.411324
0.361705
0.372862
0.404827
0.435716
0.366836
0.415853
0.381812
0.458971
0.424651
0.39353
0.376584
0.360915
0.360786
0.352879
0.509374
0.491692
0.443984
0.428398
0.347304
0.409873
0.409504
0.487089
0.373024
0.314684
0.445201
0.42179
0.377766
0.421998
0.4212
0.420999
0.422518
0.405921
0.438087
0.38292
0.469039
0.46345
0.413455
0.36838
0.427724
0.331869
0.403042
0.395072
0.34744
0.423759
0.434743
0.447474
0.363176
0.346204
0.397265
0.450878
0.407774
0.437427
0.315653
0.427755
0.384485
0.334071
0.297084
0.36333
0.384087
0.392381
0.416489
0.359416
0.370366
0.39012
0.398846
0.38636
0.440077
0.398032
0.428158
0.407693
0.340754
0.47339
0.528387
0.420995
0.411727
0.377386
0.380728
0.420104
0.392793
0.368895
0.320492
0.451605
0.392894
0.530859
0.440624
0.462775
0.418307
0.344027
0.387178
0.426556
0.37753
0.45488
0.438661
0.393725
0.442245
0.327974
0.371762
0.384794
0.399666
0.450689
0.365896
0.463709
0.422124
0.471466
0.381665
0.403462
0.399099
0.406685
0.371983
0.404208
0.464231
0.389275
0.394605
0.399255
0.486853
0.265813
0.316028
0.378545
0.361271
0.372648
0.35938
0.378554
0.43043
0.408579
0.407607
0.372315
0.43039
0.44336
0.385844
0.480368
0.34148
0.439498
0.491389
0.448569
0.428894
0.400187
0.466368
0.367046
0.359701
0.33037
0.319909
0.419975
0.364856
0.399783
0.44095
0.381312
0.362436
0.376085
0.407005
0.372192
0.362716
0.47848
0.391728
0.452852
0.438322
0.342478
0.412246
0.38338
0.425259
0.444709
0.278166
0.437626
0.377775
0.370375
0.317095
0.44009
0.375024
0.349593
0.335033
0.438969
0.444614
0.388983
0.487684
0.389408
0.425124
0.409065
0.343638
0.350472
0.43542
0.411821
0.415343
0.398332
0.394687
0.375918
0.483292
0.384213
0.336764
0.427052
0.361243
0.405667
0.398491
0.404863
0.451886
0.42122
0.413285
0.454275
0.442225
0.344939
0.402287
0.536532
0.343492
0.356221
0.459054
0.412859
0.532851
0.385775
0.470776
0.496256
0.431364
0.337311
0.489369
0.364102
0.541144
0.458083
0.418685
0.387483
0.431823
0.472887
0.385011
0.375452
0.431884
0.400013
0.409334
0.371607
0.387068
0.484786
0.352503
0.412836
0.421863
0.362962
0.440861
0.376828
0.396501
0.425973
0.374042
0.434534
0.442628
0.33338
0.421331
0.39044
0.459202
0.361432
0.386167
0.408724
0.375928
0.371628
0.396321
0.438198
0.400138
0.417872
0.377755
0.393668
0.478003
0.472633
0.356763
0.399125
0.459821
0.410756
0.340141
0.460253
0.429478
0.411512
0.409496
0.331382
0.370918
0.354442
0.306007
0.3268
0.404242
0.414954
0.377664
0.380839
0.418808
0.377755
0.369243
0.363576
0.410714
0.404847
0.420686
0.433067
0.417157
0.36748
0.31653
0.3446
0.396797
0.338307
0.408429
0.44243
0.431715
0.408283
0.35962
0.375416
0.341391
0.429767
0.423434
0.468096
0.435416
0.444989
0.512273
0.320633
0.392283
0.396171
0.453229
0.498652
0.476532
0.348468
0.30988
0.469425
0.403139
0.367166
0.412376
0.412136
0.402832
0.377677
0.350271
0.320426
0.385431
0.34197
0.335418
0.38043
0.330848
0.418005
0.407226
0.358238
0.382593
0.375072
0.4469
0.362063
0.333986
0.421137
0.397241
0.43164
0.344886
0.299295
0.420597
0.404856
0.467488
0.389646
0.379648
0.438148
0.40517
0.389333
0.380386
0.504813
0.442616
0.380375
0.493979
0.492291
0.385593
0.407163
0.390728
0.433881
0.425414
0.385952
0.355226
0.397087
0.356798
0.327995
0.266175
0.425582
0.390055
0.427189
0.501177
0.381233
0.397326
0.340513
0.385697
0.378977
0.407695
0.364132
0.344711
0.343692
0.36787
0.343696
0.376144
0.412794
0.393445
0.40102
0.409808
0.374241
0.343888
0.305104
0.284158
0.286506
0.427018
0.307154
0.42806
0.458058
0.456548
0.434208
0.484993
0.464117
0.393425
0.432704
0.43286
0.30975
0.318627
0.524212
0.311028
0.427674
0.362012
0.366809
0.508478
0.397565
0.460612
0.411048
0.435171
0.469114
0.436592
0.344303
0.355137
0.4195
0.330197
0.310143
0.404966
0.476906
0.34687
0.426135
0.423938
0.385398
0.340558
0.455581
0.351877
0.250448
0.468202
0.381468
0.392376
0.417462
0.337684
0.382917
0.331659
0.363437
0.420366
0.343318
0.400141
0.425214
0.445829
0.359482
0.469415
0.384962
0.462409
0.293046
0.412777
0.494749
0.452657
0.509203
0.406648
0.383039
0.439634
0.428525
0.463537
0.411122
0.423974
0.40557
0.414575
0.353746
0.400881
0.457403
0.378224
0.349297
0.420145
0.495766
0.373177
0.282789
0.415466
0.366983
0.255182
0.491357
0.362981
0.429563
0.389846
0.445587
0.41122
0.400317
0.37425
0.284379
0.462184
0.347306
0.418833
0.294935
0.393671
0.382117
0.444638
0.328334
0.37544
0.427871
0.37856
0.450793
0.515771
0.43305
0.392066
0.387797
0.45401
0.306847
0.422843
0.372359
0.446791
0.46422
0.309872
0.389338
0.316611
0.359457
0.401462
0.444348
0.407893
0.424911
0.453455
0.377699
0.4718
0.307491
0.425993
0.346208
0.382554
0.464199
0.40379
0.365981
0.411189
0.448524
0.410447
0.526729
0.43692
0.385581
0.356974
0.378329
0.463031
0.298449
0.457762
0.377851
0.427525
0.491447
0.441115
0.481172
0.456287
0.405739
0.463677
0.355214
0.434917
0.497333
0.350477
0.362129
0.409826
0.405181
0.418282
0.488681
0.393047
0.482185
0.432204
0.420212
0.384801
0.448092
0.391631
0.41353
0.360145
0.381848
0.392741
0.324269
0.397719
0.382117
0.418381
0.414819
0.349716
0.329107
0.311664
0.376036
0.377548
0.381885
0.31888
0.352435
0.363523
0.402418
0.39989
0.482363
0.373227
0.485254
0.414828
0.375473
0.325078
0.388852
0.415604
0.418928
0.443402
0.432364
0.396529
0.446558
0.36699
0.426699
0.408555
0.457756
0.429114
0.332369
0.425037
0.394104
0.422978
0.421017
0.373519
0.465207
0.362229
0.391223
0.494378
0.402271
0.408204
0.424894
0.372146
0.366166
0.384561
0.344565
0.421173
0.382329
0.407681
0.370537
0.364649
0.467482
0.421495
0.328858
0.403898
0.395738
0.412062
0.371849
0.410953
0.458367
0.405222
0.25128
0.47302
0.44734
0.337149
0.437103
0.416275
0.381438
0.504515
0.38472
0.415904
0.365514
0.383902
0.382186
0.374489
0.388765
0.327691
0.40578
0.434557
0.364952
0.470654
0.497656
0.302917
0.478673
0.367664
0.314607
0.45334
0.28323
0.416091
0.38476
0.419277
0.34321
0.36989
0.471451
0.370722
0.358587
0.39771
0.425281
0.355392
0.419672
0.380984
0.452421
0.41117
0.473063
0.364701
0.454914
0.502101
0.34766
0.405535
0.469244
0.34681
0.357229
0.341407
0.392437
0.34117
0.439099
0.4404
0.434834
0.340403
0.328372
0.41619
0.31283
0.458505
0.366785
0.322151
0.397874
0.479379
0.528076
0.420016
0.364705
0.461173
0.416789
0.412469
0.437804
0.320689
0.363401
0.419286
0.363073
0.354374
0.471273
0.430231
0.357058
0.402258
0.391166
0.422875
0.37226
0.362296
0.416673
0.39265
0.397454
0.466407
0.340259
0.439482
0.341044
0.494338
0.459031
0.471563
0.56761
0.41308
0.425322
0.460555
0.380337
0.344775
0.445053
0.440721
0.372824
0.371961
0.388643
0.411171
0.449314
0.393407
0.487306
0.446553
0.38498
0.369775
0.451252
0.468071
0.475349
0.350642
0.389634
0.339594
0.407165
0.389842
0.36309
0.361354
0.343163
0.470031
0.35882
0.321404
0.438588
0.422651
0.409768
0.386551
0.394338
0.368009
0.470662
0.416056
0.33492
0.422685
0.404262
0.422311
0.390718
0.395259
0.360438
0.459916
0.436653
0.409484
0.378575
0.323502
0.355565
0.464127
0.300197
0.42647
0.249626
0.345446
0.280532
0.352999
0.430649
0.431649
0.444242
0.375133
0.452891
0.409908
0.457239
0.357806
0.467056
0.376472
0.418419
0.434737
0.429985
0.502982
0.505674
0.371076
0.392073
0.383876
0.466799
0.347314
0.414233
0.396269
0.312515
0.28683
0.418096
0.400202
0.348366
0.352648
0.408326
0.419254
0.41071
0.470347
0.438139
0.350891
0.396691
0.399488
0.424593
0.386867
0.291554
0.531369
0.355303
0.36662
0.290511
0.462088
0.361517
0.361836
0.394038
0.339319
0.412362
0.477583
0.436982
0.43417
0.323482
0.421205
0.487108
0.471172
0.415878
0.318008
0.454363
0.399601
0.42271
0.320601
0.367785
0.39925
0.340026
0.430814
0.425654
0.424131
0.294277
0.366786
0.396998
0.413252
0.382335
0.453971
0.416799
0.466459
0.386413
0.333985
0.35693
0.458155
0.39119
0.431477
0.398156
0.363842
0.418687
0.438378
0.369576
0.454457
0.493935
0.38008
0.452254
0.384197
0.436944
0.520581
0.438572
0.308363
0.337179
0.422871
0.373532
0.334723
0.397556
0.331849
0.392999
0.418404
0.458137
0.391265
0.380715
0.365563
0.371576
0.418758
0.476739
0.449985
0.410494
0.363117
0.515668
0.393247
0.292632
0.351449
0.345311
0.455645
0.503056
0.301991
0.400993
0.439635
0.411957
0.398358
0.401245
0.367101
0.433709
0.406928
0.379552
0.441671
0.437395
0.342218
0.41937
0.388621
0.417112
0.445249
0.4489
0.435826
0.330895
0.372394
0.434996
0.398068
0.383919
0.361322
0.419309
0.40197
0.415652
0.396423
0.404363
0.247759
0.431777
0.428061
0.410222
0.443063
0.356729
0.358392
0.419679
0.353024
0.376673
0.410837
0.402688
0.31317
0.409862
0.447754
0.463116
0.410921
0.399323
0.385104
0.338317
0.440132
0.383063
0.445384
0.361774
0.390567
0.415099
0.424508
0.454309
0.410088
0.443452
0.350083
0.360057
0.301867
0.396099
0.411315
0.369281
0.402669
0.412186
0.459367
0.395292
0.404708
0.421781
0.376672
0.404168
0.433533
0.404327
0.345362
0.373092
0.343694
0.369487
0.358352
0.456973
0.554881
0.466168
0.412029
0.461491
0.463253
0.467752
0.423186
0.403355
0.427496
0.374844
0.437743
0.452664
0.498463
0.368575
0.29722
0.40849
0.513971
0.398265
0.417914
0.399997
0.383405
0.364665
0.347301
0.473234
0.392354
0.453786
0.409461
0.348688
0.458936
0.376667
0.36218
0.350121
0.37621
0.422553
0.395804
0.421111
0.377297
0.396729
0.349393
0.388154
0.385256
0.358383
0.412433
0.487387
0.454119
0.464146
0.50723
0.4136
0.341569
0.460132
0.390547
0.431393
0.347824
0.368907
0.282785
0.405728
0.421985
0.319762
0.508457
0.460568
0.331279
0.403319
0.362936
0.379825
0.506157
0.375832
0.350445
0.375691
0.416713
0.390623
0.408669
0.547396
0.420631
0.410665
0.398184
0.339177
0.472566
0.529161
0.339929
0.451251
0.295736
0.382487
0.346814
0.484235
0.332988
0.392857
0.338346
0.368294
0.44079
0.378062
0.426452
0.400274
0.451501
0.398758
0.430517
0.408576
0.381728
0.43697
0.352362
0.401323
0.44335
0.40073
0.440389
0.446805
0.323903
0.449511
0.443718
0.346393
0.371455
0.395998
0.411764
0.348868
0.447888
0.434205
0.384235
0.422693
0.314952
0.478193
0.439523
0.403214
0.346328
0.357834
0.361636
0.416311
0.287291
0.465274
0.498032
0.356419
0.38536
0.375529
0.373252
0.454721
0.420108
0.415743
0.462224
0.403522
0.398348
0.448809
0.4064
0.426297
0.348887
0.395346
0.33273
0.401565
0.384001
0.407722
0.369529
0.442882
0.396169
0.448029
0.474884
0.390438
0.435474
0.324379
0.417442
0.383561
0.397149
0.410606
0.356802
0.411726
0.425521
0.395529
0.307308
0.445631
0.423677
0.35943
0.393527
0.36673
0.363992
0.36984
0.359936
0.38867
0.409189
0.483722
0.411857
0.360771
0.493424
0.43782
0.479925
0.409248
0.403145
0.41929
0.389287
0.381941
0.413597
0.36034
0.313319
0.52361
0.343252
0.433804
0.343532
0.472182
0.364421
0.362766
0.39939
0.369871
0.434007
0.320583
0.344823
0.374377
0.373141
0.443181
0.375069
0.37262
0.426702
0.463383
0.449527
0.36082
0.354889
0.410117
0.387271
0.494289
0.409014
0.375998
0.406699
0.363572
0.393691
0.438745
0.426454
0.431777
0.39435
0.381099
0.471939
0.325363
0.40178
0.401529
0.338701
0.38551
0.447245
0.389616
0.427322
0.3948
0.331279
0.37939
0.415802
0.331972
0.455139
0.34179
0.450293
0.404324
0.361568
0.440135
0.408538
0.33288
0.395704
0.441023
0.353742
0.439419
0.472774
0.475583
0.439904
0.425516
0.374719
0.434975
0.434914
0.36029
0.378035
0.386215
0.400318
0.365737
0.370402
0.350459
0.357889
0.403199
0.406059
0.3737
0.356899
0.316632
0.383166
0.393115
0.476265
0.377445
0.368993
0.425262
0.310201
0.43154
0.418407
0.451698
0.459694
0.275906
0.455054
0.352899
0.487503
0.361508
0.418678
0.405685
0.396068
0.406133
0.390969
0.480559
0.397347
0.435198
0.400914
0.426579
0.34587
0.400222
0.41302
0.434469
0.430474
0.450272
0.380732
0.366584
0.366194
0.394194
0.403256
0.432996
0.35263
0.465679
0.443379
0.366361
0.332037
0.389639
0.344693
0.381276
0.48222
0.420662
0.455987
0.334133
0.474153
0.287003
0.450207
0.40822
0.367642
0.310218
0.458609
0.398899
0.473561
0.475914
0.448549
0.406928
0.400521
0.350709
0.344737
0.393699
0.497388
0.33278
0.379708
0.381313
0.343895
0.384217
0.394609
0.314082
0.380784
0.416509
0.447826
0.422902
0.376333
0.430501
0.394317
0.381449
0.437148
0.482973
0.38242
0.410006
0.392098
0.398369
0.381256
0.318124
0.410361
0.316279
0.432264
0.379682
0.462148
0.38391
0.38144
0.440469
0.420933
0.345506
0.428642
0.401344
0.468048
0.444308
0.455596
0.357493
0.394278
0.442055
0.329154
0.44699
0.349464
0.42149
0.321884
0.395889
0.431869
0.362022
0.429016
0.398988
0.32041
0.422639
0.382413
0.379658
0.285242
0.45332
0.305763
0.402153
0.338413
0.40134
0.352197
0.432984
0.367749
0.438858
0.433503
0.390422
0.338465
0.321226
0.426515
0.437319
0.573021
0.402451
0.406416
0.384188
0.349599
0.394162
0.454488
0.427585
0.458608
0.390771
0.365646
0.374954
0.415974
0.383196
0.391485
0.454505
0.378233
0.50227
0.333622
0.296405
0.439171
0.320767
0.411127
0.446511
0.485074
0.481237
0.418133
0.297532
0.343654
0.518271
0.334878
0.442785
0.391377
0.371251
0.451701
0.339983
0.41167
0.418859
0.46024
0.318429
0.439242
0.326686
0.41296
0.390027
0.516937
0.433722
0.394493
0.344415
0.46873
0.471312
0.353467
0.41251
0.470854
0.331996
0.354583
0.37005
0.375894
0.47895
0.285574
0.417248
0.446959
0.347281
0.43427
0.360259
0.362771
0.407567
0.406129
0.380404
0.444347
0.39889
0.397715
0.445078
0.366162
0.418521
0.342581
0.401617
0.382885
0.401773
0.339595
0.399681
0.415643
0.327257
0.346183
0.463476
0.467164
0.451563
0.441417
0.433471
0.457848
0.481755
0.433
0.405761
0.302557
0.431749
0.362626
0.454682
0.397917
0.435891
0.437769
0.405077
0.462637
0.460733
0.440088
0.475312
0.450924
0.43332
0.374037
0.423637
0.418154
0.400964
0.410153
0.419551
0.374724
0.437688
0.380017
0.396511
0.446211
0.425655
0.45161
0.442302
0.406739
0.372324
0.38109
0.361473
0.330248
0.352185
0.514143
0.365976
0.330628
0.45048
0.401534
0.443931
0.449148
0.384498
0.433194
0.488562
0.358465
0.304774
0.385294
0.426088
0.414598
0.438199
0.39346
0.413111
0.402618
0.451113
0.349535
0.372917
0.428072
0.424537
0.358939
0.392709
0.331327
0.460956
0.424534
0.457701
0.462671
0.404317
0.467933
0.396169
0.427227
0.453475
0.374663
0.483258
0.452664
0.450009
0.410394
0.449129
0.359751
0.388892
0.42102
0.41413
0.418285
0.304597
0.36408
0.501103
0.447285
0.462072
0.368595
0.39337
0.414489
0.374646
0.382217
0.412591
0.402583
0.428639
0.414898
0.342526
0.307733
0.391657
0.40977
0.392806
0.446561
0.431301
0.397608
0.442389
0.372365
0.452366
0.321071
0.226646
0.402582
0.437012
0.389944
0.45719
0.460216
0.360905
0.363745
0.310657
0.473657
0.430356
0.380405
0.406225
0.446451
0.383114
0.365386
0.370928
0.402603
0.290248
0.376915
0.23511
0.390354
0.363514
0.406335
0.414717
0.372409
0.414346
0.503894
0.300218
0.41529
0.494956
0.289666
0.442073
0.416694
0.346916
0.500691
0.414766
0.413482
0.371915
0.399191
0.335562
0.466734
0.349073
0.381352
0.287131
0.4339
0.427201
0.49894
0.392173
0.48542
0.449466
0.352493
0.401659
0.326305
0.43439
0.444879
0.4226
0.341629
0.510286
0.347355
0.437517
0.451433
0.389771
0.388091
0.304117
0.478299
0.361333
0.42957
0.302657
0.435229
0.437975
0.38857
0.367807
0.37704
0.404543
0.440077
0.425199
0.390629
0.40195
0.35854
0.433883
0.415685
0.408952
0.467707
0.400212
0.450615
0.438612
0.378674
0.331359
0.506887
0.430444
0.415336
0.433957
0.43382
0.346627
0.406421
0.520307
0.291559
0.441426
0.413462
0.376066
0.447801
0.427614
0.328711
0.330871
0.389304
0.363724
0.459302
0.350331
0.35849
0.385696
0.383803
0.337741
0.421058
0.472255
0.381378
0.373542
0.339488
0.351847
0.388991
0.433198
0.406197
0.322767
0.469165
0.40558
0.415263
0.429827
0.455119
0.332308
0.467355
0.476351
0.445146
0.330816
0.386563
0.41629
0.436846
0.39814
0.340427
0.433422
0.409101
0.389609
0.297155
0.449787
0.403918
0.417113
0.434771
0.330589
0.413281
0.349185
0.44433
0.357163
0.391702
0.395865
0.4199
0.36934
0.358101
0.346767
0.370357
0.44089
0.387773
0.380454
0.324581
0.321445
0.431079
0.415589
0.379708
0.43711
0.406067
0.360299
0.393674
0.367968
0.440257
0.452961
0.456365
0.498999
0.350811
0.402858
0.419711
0.356408
0.428833
0.397888
0.433919
0.402626
0.461747
0.433678
0.410986
0.407941
0.492674
0.451543
0.378647
0.378244
0.398039
0.398671
0.32924
0.389919
0.331818
0.449533
0.410567
0.407483
0.336455
0.407899
0.398491
0.435203
0.448351
0.380737
0.431369
0.487145
0.35449
0.326555
0.346119
0.320048
0.407809
0.410078
0.496167
0.477724
0.3676
0.41324
0.432829
0.365437
0.476157
0.425881
0.289094
0.37711
0.446518
0.390754
0.368822
0.36605
0.42874
0.406611
0.404163
0.352969
0.340855
0.370749
0.359485
0.413716
0.433396
0.535812
0.34902
0.373695
0.403917
0.407721
0.357011
0.428348
0.359737
0.385508
0.455321
0.343631
0.404629
0.324432
0.378407
0.55221
0.346676
0.332077
0.390122
0.408708
0.442616
0.372507
0.411874
0.457919
0.34634
0.458199
0.409823
0.363474
0.288669
0.460486
0.474758
0.403863
0.362793
0.326605
0.455014
0.366942
0.415899
0.379402
0.403974
0.425579
0.415842
0.490035
0.361253
0.426447
0.428831
0.484617
0.381839
0.476183
0.385118
0.450506
0.372158
0.37467
0.447867
0.429901
0.310438
0.423109
0.450726
0.394175
0.487991
0.384517
0.44139
0.402673
0.357673
0.435455
0.341679
0.482427
0.3956
0.394953
0.328151
0.416468
0.385994
0.480483
0.336848
0.459164
0.421591
0.401835
0.402848
0.447623
0.388406
0.428781
0.43946
0.473362
0.395831
0.417997
0.411931
0.391973
0.389725
0.306623
0.329912
0.443783
0.400694
0.374735
0.384737
0.411449
0.461648
0.42437
0.370493
0.389325
0.510758
0.386615
0.386364
0.44778
0.341609
0.360196
0.430704
0.358005
0.444167
0.405466
0.452914
0.416251
0.385808
0.40502
0.418623
0.413324
0.365975
0.427556
0.448679
0.373064
0.394244
0.438651
0.427208
0.422103
0.366364
0.416029
0.332137
0.429498
0.539443
0.415308
0.385141
0.366728
0.467141
0.307672
0.433246
0.455046
0.373905
0.46318
0.423652
0.390283
0.383475
0.39504
0.44994
0.37215
0.41376
0.330398
0.467366
0.420331
0.392319
0.425502
0.380178
0.403492
0.39884
0.328953
0.412331
0.371209
0.275072
0.29663
0.490975
0.40015
0.41252
0.380398
0.371878
0.398769
0.371653
0.378186
0.432454
0.389809
0.429488
0.389512
0.327161
0.39214
0.442381
0.494734
0.351554
0.446221
0.364155
0.315922
0.313279
0.360112
0.38563
0.434389
0.392118
0.325846
0.454408
0.45388
0.470311
0.344684
0.373053
0.493949
0.4309
0.465391
0.381637
0.374617
0.446836
0.371277
0.422577
0.372851
0.35623
0.323291
0.41428
0.436702
0.392515
0.429688
0.410539
0.409698
0.391807
0.405238
0.386824
0.385015
0.419458
0.392239
0.428192
0.439406
0.355112
0.436347
0.423431
0.40324
0.337606
0.468931
0.513761
0.312626
0.437215
0.465419
0.356585
0.369302
0.326178
0.399296
0.399264
0.370621
0.403152
0.352543
0.380949
0.486898
0.397732
0.344639
0.387638
0.413419
0.39238
0.354332
0.394939
0.498778
0.38562
0.437737
0.444389
0.382115
0.377449
0.346804
0.429436
0.409178
0.419626
0.428656
0.36585
0.436448
0.451917
0.441991
0.416719
0.347975
0.33782
0.327183
0.346203
0.436987
0.336731
0.406809
0.313922
0.387905
0.369584
0.421869
0.425416
0.505646
0.389586
0.437609
0.421108
0.450027
0.359149
0.416621
0.386061
0.420753
0.399279
0.356161
0.443764
0.400549
0.438839
0.493595
0.265457
0.470018
0.331297
0.523301
0.403022
0.382702
0.327264
0.355576
0.339734
0.443112
0.443042
0.350781
0.29715
0.40052
0.351257
0.348578
0.409437
0.366314
0.37944
0.385059
0.342797
0.409308
0.356726
0.401172
0.423718
0.398331
0.3392
0.342611
0.45329
0.391962
0.444251
0.361499
0.293699
0.412581
0.378191
0.366697
0.442503
0.353814
0.443696
0.459528
0.393706
0.458099
0.317539
0.377095
0.363359
0.394192
0.37196
0.425579
0.38489
0.363441
0.497244
0.437813
0.435909
0.465199
0.511613
0.476935
0.308486
0.389592
0.308098
0.323027
0.396907
0.510826
0.329403
0.406453
0.326096
0.362239
0.420157
0.424777
0.408931
0.463409
0.392428
0.403045
0.441416
0.395143
0.398788
0.372049
0.429995
0.443251
0.37653
0.485566
0.342804
0.432076
0.466943
0.434912
0.354767
0.39111
0.376143
0.384268
0.429843
0.378653
0.382534
0.30116
0.39756
0.444058
0.362814
0.352985
0.435544
0.450453
0.402674
0.339683
0.492169
0.366963
0.558462
0.417957
0.409634
0.394059
0.439013
0.343267
0.335326
0.448157
0.497722
0.46316
0.388889
0.485987
0.440383
0.377385
0.33077
0.449542
0.434696
0.382734
0.471933
0.44693
0.402721
0.340999
0.413068
0.42865
0.386804
0.388483
0.405052
0.422077
0.359776
0.473487
0.383794
0.388583
0.480409
0.358228
0.43879
0.417361
0.396579
0.398251
0.401585
0.367648
0.382733
0.315971
0.48705
0.406288
0.423053
0.405246
0.39784
0.440625
0.435341
0.341018
0.418706
0.436859
0.454642
0.447724
0.399742
0.381506
0.362169
0.422084
0.42808
0.422503
0.379981
0.387414
0.34882
0.34131
0.386239
0.354496
0.480187
0.429909
0.43939
0.455362
0.402304
0.414355
0.440278
0.396727
0.405906
0.332476
0.355323
0.36178
0.331233
0.389221
0.376076
0.382485
0.392138
0.426268
0.433268
0.481448
0.454582
0.437947
0.404281
0.328908
0.32775
0.410513
0.387686
0.355459
0.472176
0.344214
0.411801
0.457868
0.363829
0.450882
0.451854
0.419135
0.306918
0.330848
0.473986
0.401026
0.507853
0.443388
0.387724
0.381247
0.397312
0.41266
0.455833
0.395561
0.43315
0.334924
0.41581
0.371183
0.441815
0.362097
0.342925
0.382612
0.449527
0.386881
0.412101
0.408748
0.423964
0.352668
0.362903
0.392891
0.425159
0.359667
0.357864
0.418631
0.245832
0.426157
0.274093
0.309372
0.415549
0.424214
0.464934
0.361602
0.37984
0.489999
0.408256
0.421733
0.453518
0.348416
0.415118
0.406567
0.471798
0.408577
0.416459
0.347081
0.489074
0.379992
0.432086
0.425348
0.456928
0.250945
0.391761
0.367439
0.440899
0.458352
0.41576
0.391369
0.430087
0.425844
0.363042
0.385297
0.397846
0.359926
0.382243
0.430228
0.34776
0.518497
0.442996
0.3538
0.418204
0.391715
0.463705
0.383689
0.392738
0.37636
0.440388
0.319118
0.392459
0.442661
0.456011
0.447251
0.308967
0.415082
0.439733
0.455482
0.43654
0.322637
0.410459
0.309165
0.411499
0.36277
0.401411
0.444341
0.411635
0.395881
0.49201
0.360636
0.404799
0.398173
0.441383
0.366873
0.424235
0.408374
0.372352
0.419809
0.282412
0.328995
0.436495
0.40294
0.427026
0.320153
0.317259
0.324237
0.416261
0.377554
0.457549
0.375709
0.406213
0.485614
0.375258
0.439231
0.338337
0.451269
0.397053
0.413623
0.405256
0.403197
0.498456
0.408742
0.333103
0.437281
0.339573
0.343821
0.384088
0.374174
0.363855
0.451079
0.405295
0.365033
0.431915
0.384627
0.403423
0.486033
0.378873
0.405864
0.441423
0.432837
0.384052
0.448746
0.32188
0.411875
0.443282
0.348776
0.431258
0.459195
0.469784
0.427748
0.349127
0.395633
0.337829
0.520417
0.275558
0.356424
0.371556
0.349279
0.369613
0.425747
0.355059
0.339561
0.363467
0.447288
0.280184
0.410634
0.313765
0.362036
0.391086
0.320347
0.435315
0.479952
0.409057
0.336814
0.407548
0.448017
0.400075
0.388937
0.338082
0.324208
0.329537
0.394457
0.355363
0.381475
0.455848
0.462043
0.478386
0.316606
0.359933
0.440827
0.330152
0.466912
0.467724
0.435383
0.4664
0.288872
0.322603
0.391085
0.431797
0.376363
0.369286
0.407859
0.347919
0.40939
0.40667
0.362011
0.482524
0.428654
0.37423
0.344645
0.351941
0.372974
0.455541
0.445922
0.446051
0.329991
0.449064
0.41783
0.394942
0.420012
0.382222
0.472021
0.41815
0.383182
0.411232
0.451691
0.38031
0.450328
0.39633
0.434636
0.365086
0.40706
0.353658
0.305441
0.434957
0.273101
0.342105
0.305961
0.354599
0.380436
0.382506
0.354537
0.489951
0.452845
0.4563
0.387012
0.408229
0.328283
0.403738
0.412288
0.456101
0.487706
0.390783
0.346482
0.402073
0.425077
0.409543
0.364413
0.318712
0.333052
0.379644
0.280946
0.355191
0.355538
0.39388
0.342791
0.388984
0.403397
0.501316
0.423751
0.411985
0.373931
0.442367
0.432984
0.341845
0.373926
0.466315
0.405031
0.361622
0.307157
0.450488
0.398827
0.466175
0.423018
0.401477
0.412485
0.347126
0.411538
0.447974
0.445811
0.418441
0.444181
0.362108
0.466324
0.440257
0.344638
0.406109
0.460432
0.387955
0.383125
0.405727
0.399743
0.446315
0.39506
0.395233
0.301763
0.482362
0.339998
0.321264
0.42004
0.424186
0.419174
0.377219
0.319632
0.490865
0.407334
0.402249
0.404288
0.397589
0.343764
0.379412
0.415664
0.385287
0.357812
0.435838
0.434776
0.449832
0.424901
0.401199
0.4576
0.455831
0.441849
0.327228
0.44079
0.318159
0.332458
0.399248
0.450485
0.41778
0.391734
0.473052
0.2964
0.348504
0.304324
0.365306
0.338673
0.426547
0.425451
0.405232
0.480637
0.360871
0.474977
0.34066
0.442659
0.320828
0.370464
0.401423
0.401407
0.411329
0.410576
0.337543
0.446245
0.344719
0.456984
0.403285
0.481228
0.435156
0.414165
0.511632
0.391419
0.360756
0.435351
0.39906
0.374715
0.374838
0.405809
0.383128
0.400188
0.38588
0.429299
0.389188
0.40494
0.457628
0.365304
0.372374
0.405321
0.350691
0.353211
0.414092
0.35938
0.298978
0.51257
0.361703
0.43857
0.441813
0.421841
0.48814
0.412804
0.528817
0.384001
0.446844
0.38854
0.336324
0.473307
0.410525
0.467083
0.421954
0.325753
0.326478
0.377896
0.453353
0.358963
0.375422
0.469776
0.369945
0.437035
0.438461
0.472339
0.32524
0.405585
0.377059
0.429905
0.392683
0.511979
0.340577
0.479359
0.443005
0.43975
0.429265
0.309721
0.370789
0.34688
0.391348
0.448947
0.404896
0.349419
0.368116
0.353426
0.457854
0.408185
0.422902
0.357646
0.343556
0.437168
0.485352
0.384375
0.428129
0.386953
0.342566
0.387348
0.402126
0.378789
0.326899
0.388109
0.344696
0.477834
0.350156
0.343388
0.442521
0.265296
0.337718
0.36797
0.388711
0.277764
0.388755
0.417694
0.382655
0.50395
0.421888
0.43303