/*--------------------------------*- C++ -*----------------------------------*\
  =========                 |
  \\      /  F ield         | OpenFOAM: The Open Source CFD Toolbox
   \\    /   O peration     | Website:  https://openfoam.org
    \\  /    A nd           | Version:  7
     \\/     M anipulation  |
\*---------------------------------------------------------------------------*/
FoamFile
{
    version     2.0;
    format      ascii;
    class       volScalarField;
    location    "0";
    object      epss;
}
// * * * * * * * * * * * * * * * * * * * * * * * * * * * * * * * * * * * * * //

dimensions      [0 0 0 0 0 0 0];

internalField   nonuniform List<scalar> 
196256
(
0.458716
0.560029
0.627376
0.656647
0.566432
0.595001
0.766166
0.489337
0.583759
0.508213
0.601475
0.641666
0.43507
0.505283
0.517952
0.565087
0.678516
0.689096
0.686872
0.707804
0.675916
0.560134
0.636379
0.673856
0.644883
0.663396
0.621617
0.59869
0.690449
0.698668
0.533875
0.544605
0.722366
0.592582
0.654824
0.680983
0.674975
0.574831
0.574315
0.5873
0.418147
0.52906
0.612975
0.570974
0.784756
0.657374
0.644653
0.546025
0.469146
0.495526
0.505464
0.515387
0.584549
0.707184
0.676962
0.582418
0.522403
0.640161
0.723397
0.639664
0.536575
0.727175
0.694023
0.634805
0.568301
0.622843
0.442395
0.575495
0.546057
0.56166
0.516959
0.835415
0.634203
0.650106
0.633079
0.551944
0.58549
0.517662
0.550543
0.630396
0.539492
0.66184
0.592446
0.676589
0.807929
0.50763
0.579465
0.505971
0.699669
0.466378
0.722424
0.577018
0.73976
0.465519
0.743783
0.487572
0.654378
0.438162
0.566973
0.492883
0.488148
0.624657
0.741573
0.542339
0.499134
0.737527
0.561861
0.584199
0.545656
0.547608
0.643571
0.807093
0.563422
0.645517
0.533794
0.622936
0.616878
0.644865
0.517183
0.582936
0.57473
0.63932
0.435982
0.598926
0.610667
0.565497
0.48557
0.684182
0.510369
0.553501
0.643369
0.473923
0.717552
0.748783
0.699531
0.401671
0.638036
0.470868
0.523838
0.678297
0.624626
0.572295
0.640014
0.565479
0.610481
0.469526
0.55902
0.713829
0.633369
0.576006
0.692611
0.63934
0.720665
0.593325
0.679324
0.554407
0.544326
0.665433
0.637887
0.652141
0.532841
0.642407
0.497549
0.595181
0.586208
0.54081
0.522248
0.603054
0.586361
0.680227
0.700225
0.752628
0.522594
0.621149
0.711999
0.541866
0.518239
0.798742
0.772726
0.497452
0.624124
0.587464
0.620963
0.742969
0.529622
0.630189
0.530463
0.815564
0.534232
0.539903
0.552996
0.810835
0.570492
0.681045
0.694132
0.691979
0.603863
0.816527
0.479529
0.648426
0.61973
0.57877
0.740183
0.635682
0.637604
0.575968
0.70861
0.581597
0.452666
0.399614
0.592624
0.579702
0.804023
0.655424
0.614943
0.63593
0.675516
0.682918
0.674851
0.532171
0.610716
0.620192
0.599373
0.544307
0.745777
0.573196
0.582616
0.638077
0.607333
0.622693
0.661771
0.242201
0.574249
0.634476
0.562469
0.593509
0.622539
0.639567
0.575657
0.646614
0.721998
0.490917
0.527619
0.675171
0.691348
0.668125
0.614305
0.712984
0.599867
0.334171
0.507787
0.457346
0.780102
0.569526
0.678793
0.629737
0.654813
0.840638
0.581683
0.626732
0.685865
0.556378
0.50886
0.637916
0.435214
0.687633
0.652443
0.578462
0.563296
0.577922
0.686416
0.710678
0.49372
0.657229
0.789008
0.582109
0.547452
0.709893
0.474355
0.602236
0.627042
0.692491
0.612903
0.788039
0.800977
0.587456
0.549676
0.666929
0.564802
0.402995
0.588675
0.687589
0.479995
0.50246
0.524146
0.658491
0.699973
0.62243
0.543469
0.51506
0.55527
0.584181
0.585638
0.488243
0.528509
0.550549
0.660844
0.463146
0.69363
0.510854
0.70074
0.556191
0.555726
0.761796
0.460846
0.716078
0.748662
0.722545
0.661069
0.507744
0.5916
0.497537
0.624956
0.632084
0.594404
0.517357
0.623309
0.507225
0.531244
0.715991
0.658008
0.601791
0.537286
0.614369
0.763646
0.479897
0.405302
0.585039
0.705315
0.626088
0.491948
0.621199
0.649802
0.430101
0.587148
0.738602
0.522375
0.650233
0.779698
0.623651
0.6645
0.529719
0.458439
0.363264
0.587268
0.691921
0.755556
0.711039
0.769261
0.546584
0.575639
0.601328
0.475177
0.463164
0.539734
0.55322
0.453519
0.653891
0.387475
0.472546
0.523649
0.555221
0.809228
0.7067
0.577153
0.561933
0.64657
0.77808
0.572428
0.736324
0.48981
0.572315
0.656135
0.670826
0.653096
0.592144
0.776717
0.521301
0.659657
0.646043
0.658408
0.616914
0.671239
0.386942
0.662724
0.485325
0.505689
0.614038
0.782341
0.739956
0.663371
0.590043
0.641615
0.581452
0.635514
0.511374
0.551838
0.45583
0.560658
0.55868
0.50135
0.608746
0.446738
0.512596
0.524913
0.571194
0.569953
0.797486
0.699326
0.564635
0.847768
0.601353
0.338068
0.730594
0.690854
0.552234
0.712382
0.686346
0.273719
0.620337
0.587923
0.71304
0.580187
0.55851
0.57791
0.574369
0.557825
0.747384
0.564275
0.762885
0.56731
0.766466
0.608991
0.643649
0.489876
0.65164
0.547595
0.425455
0.64921
0.557859
0.552979
0.573611
0.627899
0.543838
0.633618
0.63168
0.608289
0.446154
0.518205
0.749719
0.601518
0.641234
0.509982
0.619085
0.437673
0.663545
0.708518
0.715977
0.517999
0.589758
0.672261
0.614685
0.684572
0.721452
0.655958
0.573848
0.579723
0.440879
0.49469
0.565026
0.509768
0.579484
0.707205
0.741154
0.697716
0.674779
0.632368
0.447716
0.563999
0.628487
0.645218
0.797164
0.532238
0.575131
0.5255
0.538865
0.632474
0.617177
0.457613
0.625556
0.672958
0.569734
0.662423
0.661716
0.4902
0.639232
0.75301
0.631533
0.59464
0.631655
0.479172
0.653686
0.575905
0.439899
0.713183
0.428943
0.596363
0.628883
0.613731
0.748409
0.466905
0.511654
0.704569
0.552213
0.46763
0.591683
0.590992
0.567945
0.598696
0.64543
0.529864
0.600573
0.620011
0.540949
0.521003
0.734746
0.666989
0.903309
0.513294
0.67839
0.5165
0.59491
0.550074
0.626457
0.668973
0.458934
0.530668
0.738402
0.627717
0.580176
0.35016
0.642754
0.572521
0.587136
0.793903
0.577502
0.564269
0.741007
0.564293
0.610527
0.694759
0.728408
0.688652
0.600653
0.633616
0.577555
0.51107
0.564835
0.573608
0.556105
0.637234
0.693747
0.61807
0.476042
0.608803
0.57594
0.558199
0.620451
0.576891
0.450156
0.641779
0.546957
0.569154
0.580268
0.569024
0.550302
0.702446
0.607387
0.510002
0.659246
0.60211
0.501567
0.600528
0.543114
0.618615
0.518629
0.431947
0.579241
0.520673
0.651688
0.516445
0.56966
0.641245
0.634424
0.598927
0.458978
0.720017
0.536518
0.711881
0.50915
0.606601
0.60574
0.623733
0.72615
0.698931
0.626449
0.542007
0.733336
0.655245
0.685567
0.614412
0.691841
0.80288
0.648963
0.569908
0.688821
0.679515
0.407436
0.543624
0.513676
0.685618
0.493578
0.726227
0.698677
0.432515
0.635262
0.612842
0.781751
0.585653
0.495908
0.548289
0.718414
0.473266
0.447336
0.506828
0.647691
0.581571
0.620213
0.671318
0.533864
0.532521
0.715344
0.465504
0.409958
0.3589
0.629598
0.514282
0.657023
0.697628
0.562349
0.509131
0.692591
0.505885
0.564612
0.680318
0.47595
0.568548
0.747193
0.464434
0.646922
0.656387
0.570272
0.528864
0.473224
0.608126
0.62051
0.838044
0.531999
0.429211
0.747054
0.442689
0.77461
0.755868
0.571487
0.640329
0.480296
0.604794
0.579004
0.699303
0.5995
0.594604
0.561579
0.546695
0.659425
0.763735
0.458102
0.633167
0.589114
0.598164
0.598849
0.654656
0.567516
0.387743
0.599439
0.461429
0.69275
0.72381
0.682266
0.577601
0.535503
0.679118
0.709029
0.648521
0.518115
0.60723
0.667012
0.66923
0.609739
0.748971
0.736493
0.657946
0.481264
0.7182
0.497906
0.52393
0.689986
0.490167
0.532965
0.695278
0.73732
0.562053
0.496361
0.34868
0.718542
0.618776
0.653094
0.650614
0.729639
0.593518
0.784868
0.657174
0.443561
0.613179
0.680405
0.702864
0.61734
0.363154
0.562681
0.763623
0.591614
0.596742
0.579983
0.509311
0.710893
0.589046
0.69416
0.636173
0.597966
0.700656
0.644147
0.422382
0.608409
0.652632
0.547381
0.688182
0.630914
0.61535
0.546606
0.583767
0.641379
0.626169
0.627442
0.468548
0.590507
0.610012
0.559192
0.577495
0.639672
0.409356
0.585605
0.577965
0.514949
0.606437
0.696105
0.686715
0.598093
0.61577
0.88341
0.659431
0.375877
0.564682
0.65528
0.507083
0.538473
0.49769
0.65823
0.68819
0.513936
0.462587
0.573573
0.512179
0.546522
0.567858
0.522758
0.466693
0.528864
0.390792
0.594781
0.424777
0.60069
0.621025
0.778923
0.733405
0.661276
0.456323
0.60723
0.703948
0.523593
0.600324
0.565458
0.59789
0.661034
0.74327
0.716258
0.72105
0.444689
0.697184
0.687081
0.657827
0.567173
0.593668
0.536795
0.66763
0.526343
0.595181
0.839924
0.74036
0.65128
0.630209
0.582676
0.494517
0.551642
0.670176
0.689647
0.575274
0.622086
0.742335
0.557014
0.804518
0.615109
0.572975
0.661699
0.618127
0.504169
0.59416
0.574486
0.630396
0.536165
0.503907
0.772935
0.477423
0.637987
0.682545
0.622768
0.722955
0.544294
0.530793
0.492453
0.613776
0.606632
0.679828
0.634632
0.515824
0.625137
0.517482
0.488056
0.815708
0.515134
0.544375
0.635617
0.638859
0.536004
0.494691
0.39433
0.565864
0.456461
0.607968
0.541555
0.593737
0.609293
0.602506
0.624757
0.7486
0.543363
0.648475
0.607469
0.605392
0.612443
0.686546
0.755541
0.626095
0.591964
0.543263
0.608648
0.566061
0.632455
0.588807
0.869319
0.775277
0.635298
0.392454
0.51092
0.502312
0.618997
0.491024
0.737199
0.597555
0.687711
0.510976
0.59639
0.512863
0.736863
0.637111
0.705761
0.575043
0.541684
0.515554
0.654439
0.710039
0.446293
0.589743
0.612037
0.46226
0.702192
0.648277
0.490276
0.672677
0.680939
0.759112
0.600162
0.616932
0.330041
0.483723
0.500893
0.56567
0.607558
0.555151
0.646754
0.395795
0.466621
0.567816
0.569994
0.633632
0.631768
0.651051
0.629137
0.427896
0.475711
0.500155
0.58391
0.617554
0.523604
0.576111
0.672234
0.569046
0.538288
0.662803
0.564538
0.693141
0.811162
0.58061
0.583467
0.593097
0.589267
0.728349
0.506325
0.608273
0.501841
0.611345
0.648709
0.529605
0.723679
0.520837
0.688419
0.487786
0.680936
0.529473
0.653018
0.532406
0.558012
0.556995
0.747544
0.608072
0.718669
0.444932
0.462569
0.77314
0.520356
0.512783
0.472152
0.537785
0.655307
0.560415
0.417782
0.519074
0.654664
0.657977
0.4805
0.481701
0.363795
0.658018
0.630784
0.539175
0.547263
0.809233
0.554342
0.671478
0.540865
0.651735
0.624693
0.629846
0.72006
0.673159
0.436296
0.458438
0.421314
0.690169
0.631168
0.60124
0.679512
0.373923
0.533553
0.578527
0.357641
0.656072
0.543661
0.714377
0.613261
0.584134
0.806511
0.50935
0.671334
0.467635
0.606584
0.60017
0.555063
0.542384
0.521616
0.465662
0.638644
0.588495
0.568285
0.540379
0.540731
0.567195
0.833273
0.514679
0.579739
0.523122
0.69914
0.697085
0.51672
0.557432
0.602026
0.680928
0.559015
0.438245
0.740255
0.640687
0.583179
0.543669
0.553178
0.529803
0.607113
0.582266
0.671921
0.801954
0.469449
0.65353
0.377707
0.619412
0.592675
0.620682
0.706552
0.558426
0.480928
0.628569
0.652395
0.450526
0.566755
0.639931
0.609788
0.683033
0.445904
0.521414
0.612422
0.710541
0.602428
0.487037
0.731785
0.59317
0.567816
0.706052
0.672609
0.558792
0.732818
0.577261
0.772843
0.519946
0.515533
0.449149
0.604822
0.727448
0.53352
0.548276
0.530372
0.73946
0.583699
0.493283
0.466963
0.594087
0.56646
0.492229
0.626171
0.397827
0.517331
0.485036
0.714678
0.534255
0.639959
0.500172
0.61083
0.857225
0.674811
0.61084
0.645168
0.598583
0.614908
0.650326
0.660538
0.765218
0.814869
0.455806
0.701648
0.736549
0.805003
0.667159
0.457707
0.63087
0.645096
0.486294
0.669598
0.596795
0.661127
0.431754
0.551697
0.565559
0.574142
0.575085
0.540851
0.491004
0.53574
0.433802
0.697337
0.734293
0.843173
0.740799
0.692629
0.499565
0.712702
0.576864
0.559561
0.557308
0.522978
0.621725
0.633652
0.490528
0.618296
0.444829
0.433009
0.81324
0.554701
0.610549
0.630849
0.413326
0.590777
0.483187
0.655972
0.574661
0.685183
0.713387
0.668943
0.686208
0.618423
0.741044
0.487789
0.473961
0.579545
0.589334
0.529434
0.732272
0.587324
0.535559
0.509925
0.414453
0.582928
0.478498
0.565537
0.637741
0.502033
0.522217
0.42959
0.448344
0.524081
0.650288
0.577756
0.717547
0.805346
0.652339
0.410764
0.468747
0.543268
0.728801
0.790899
0.490392
0.767247
0.682316
0.678345
0.827135
0.675547
0.49978
0.795829
0.562797
0.727851
0.536457
0.682744
0.625232
0.633978
0.601196
0.589545
0.449773
0.571997
0.627406
0.589622
0.632734
0.704607
0.51527
0.575889
0.603034
0.633978
0.736487
0.658365
0.740814
0.375894
0.695569
0.59928
0.621797
0.640717
0.540971
0.721385
0.714242
0.523485
0.58309
0.560376
0.662341
0.697731
0.801535
0.547729
0.541521
0.708407
0.589482
0.594286
0.591336
0.667904
0.887
0.627704
0.578717
0.697013
0.531496
0.639359
0.509046
0.580964
0.657673
0.542243
0.642134
0.698854
0.640466
0.397839
0.622208
0.472196
0.675157
0.498337
0.435777
0.604577
0.575579
0.557664
0.496803
0.552011
0.588687
0.472632
0.363596
0.751067
0.650261
0.683444
0.594983
0.712439
0.471735
0.643989
0.489254
0.345211
0.527489
0.522127
0.661315
0.608701
0.716988
0.54293
0.684807
0.622468
0.593974
0.453384
0.620337
0.605784
0.657657
0.48879
0.660434
0.554562
0.668418
0.505223
0.601469
0.711801
0.577507
0.574952
0.618866
0.675834
0.608235
0.714749
0.6922
0.834267
0.597992
0.735339
0.575965
0.549729
0.526186
0.807356
0.54532
0.553461
0.598777
0.57922
0.546904
0.684169
0.644536
0.615414
0.559856
0.685398
0.721537
0.469639
0.614689
0.617786
0.646643
0.815344
0.495789
0.648717
0.687664
0.668106
0.710753
0.733641
0.515456
0.696599
0.694571
0.717241
0.876911
0.688216
0.589353
0.61903
0.498728
0.618398
0.468672
0.849237
0.523858
0.698551
0.557963
0.637576
0.563454
0.437793
0.549122
0.67559
0.398032
0.663279
0.581094
0.317184
0.568703
0.619361
0.54979
0.602339
0.521331
0.658887
0.579668
0.625233
0.516704
0.446747
0.6962
0.481296
0.695687
0.770141
0.603006
0.504731
0.512411
0.775905
0.618935
0.50188
0.717719
0.566512
0.70748
0.613288
0.584069
0.472826
0.615
0.407996
0.583125
0.502685
0.496497
0.532958
0.497676
0.443796
0.652548
0.494166
0.696794
0.479479
0.641528
0.525436
0.810205
0.61063
0.537534
0.685731
0.495204
0.777808
0.751667
0.498186
0.650385
0.450298
0.783575
0.614195
0.473669
0.52378
0.590311
0.560991
0.605101
0.569534
0.650053
0.656116
0.584852
0.607934
0.559424
0.584551
0.643103
0.570756
0.641927
0.71265
0.552342
0.45567
0.698431
0.54712
0.566169
0.401358
0.567214
0.595662
0.658748
0.46304
0.494889
0.558361
0.763652
0.700684
0.593097
0.639396
0.572866
0.597407
0.581403
0.557703
0.534581
0.606783
0.605962
0.493992
0.507222
0.603183
0.479033
0.665233
0.706213
0.382933
0.743629
0.604873
0.633836
0.577083
0.436373
0.698807
0.633326
0.573813
0.579854
0.591707
0.685118
0.538593
0.634797
0.552536
0.523103
0.751896
0.67563
0.551479
0.625853
0.616882
0.662911
0.632043
0.619518
0.583871
0.691361
0.638684
0.842761
0.484008
0.424184
0.714639
0.417406
0.677461
0.591735
0.602323
0.548233
0.665947
0.667844
0.618597
0.494086
0.789237
0.554735
0.56467
0.668602
0.41995
0.644732
0.448819
0.645105
0.641966
0.671268
0.510871
0.319151
0.625287
0.548027
0.517231
0.686695
0.696159
0.625556
0.668535
0.565495
0.582965
0.581424
0.749634
0.580753
0.725071
0.607822
0.624574
0.439257
0.436624
0.675718
0.75786
0.65007
0.497965
0.542931
0.807271
0.970818
0.569828
0.505751
0.650148
0.452123
0.560366
0.545414
0.681819
0.467627
0.471661
0.726219
0.520487
0.588866
0.761835
0.665408
0.655527
0.704937
0.620615
0.567116
0.587211
0.665029
0.626939
0.906593
0.544988
0.792604
0.723245
0.723994
0.788194
0.590156
0.357491
0.58515
0.542222
0.565276
0.623396
0.679096
0.480989
0.202701
0.737504
0.622612
0.470485
0.75908
0.587919
0.444537
0.735449
0.492809
0.747804
0.521795
0.662132
0.775663
0.465951
0.671705
0.412112
0.479509
0.55879
0.648195
0.608405
0.571882
0.54656
0.549459
0.48971
0.758365
0.684889
0.593077
0.565591
0.59899
0.619802
0.567797
0.484948
0.692032
0.633974
0.607983
0.434575
0.684475
0.545883
0.506316
0.695075
0.76016
0.561423
0.798015
0.583582
0.458527
0.509837
0.675636
0.598712
0.61936
0.57216
0.54649
0.65274
0.573975
0.43918
0.636081
0.840426
0.560374
0.494284
0.395691
0.419314
0.682094
0.259115
0.564465
0.521611
0.57887
0.51603
0.663056
0.559167
0.516302
0.534857
0.798206
0.653422
0.537192
0.64463
0.553936
0.71809
0.470941
0.47604
0.627113
0.62833
0.512888
0.567184
0.485566
0.574653
0.349988
0.580878
0.473796
0.459921
0.674979
0.777318
0.535602
0.536926
0.635148
0.502758
0.516378
0.794744
0.555216
0.689017
0.657477
0.644726
0.594066
0.477837
0.526008
0.297138
0.524356
0.627566
0.663247
0.759119
0.52546
0.486619
0.561498
0.560193
0.725821
0.636965
0.692302
0.79044
0.580117
0.508622
0.531978
0.690324
0.820562
0.608812
0.711117
0.625101
0.649645
0.602611
0.636141
0.575824
0.635871
0.737019
0.406878
0.728857
0.595184
0.478843
0.599815
0.567759
0.642883
0.669869
0.667168
0.743148
0.644587
0.495141
0.860175
0.628483
0.677803
0.712247
0.596903
0.64695
0.571267
0.579425
0.495927
0.54445
0.588096
0.755818
0.556779
0.677315
0.543701
0.748822
0.775811
0.528844
0.68488
0.558734
0.595328
0.697198
0.744823
0.576248
0.551902
0.880627
0.477245
0.629979
0.541476
0.53675
0.705795
0.68186
0.774604
0.692418
0.468351
0.668638
0.581959
0.550982
0.566116
0.561664
0.514103
0.610196
0.726854
0.646299
0.685319
0.442778
0.62448
0.519389
0.878601
0.634896
0.63586
0.659118
0.731451
0.607032
0.771119
0.516619
0.556017
0.615497
0.476083
0.442491
0.538415
0.437558
0.667779
0.590168
0.549092
0.51868
0.504825
0.696131
0.679168
0.691705
0.732429
0.776034
0.728122
0.662372
0.527995
0.648906
0.547313
0.600965
0.70596
0.641239
0.568272
0.596314
0.763397
0.536548
0.60756
0.50427
0.613541
0.561916
0.605862
0.386329
0.655032
0.558108
0.582819
0.514186
0.439688
0.491057
0.556559
0.732819
0.624157
0.760819
0.391509
0.626064
0.804738
0.668129
0.669592
0.504588
0.437043
0.533101
0.355495
0.667778
0.450911
0.320572
0.54858
0.551072
0.586772
0.459896
0.542299
0.603542
0.49387
0.554621
0.747523
0.816866
0.539292
0.484751
0.528406
0.610126
0.609325
0.393729
0.420395
0.564894
0.394036
0.736606
0.679547
0.475423
0.639386
0.49394
0.588917
0.567328
0.540442
0.550316
0.628119
0.542871
0.74918
0.672401
0.633032
0.76695
0.574827
0.616118
0.608357
0.539662
0.439652
0.461056
0.520799
0.64683
0.585616
0.643324
0.757033
0.579209
0.564119
0.686623
0.792073
0.710508
0.69175
0.620682
0.69792
0.487354
0.561835
0.358378
0.631935
0.702761
0.666985
0.631046
0.350049
0.555058
0.62494
0.622701
0.412823
0.688985
0.5091
0.521099
0.615707
0.486256
0.553582
0.493199
0.668241
0.638208
0.687897
0.636459
0.539092
0.507178
0.646279
0.562967
0.531818
0.591015
0.501289
0.636374
0.705003
0.612477
0.473685
0.608677
0.612028
0.688454
0.677548
0.641105
0.547925
0.430852
0.468313
0.647098
0.615137
0.627107
0.755598
0.594895
0.540011
0.681907
0.51396
0.459549
0.52048
0.632112
0.547064
0.634128
0.751959
0.775655
0.543345
0.626629
0.591294
0.637547
0.563412
0.670619
0.56895
0.538722
0.622113
0.524357
0.798044
0.570226
0.814213
0.577985
0.59027
0.470887
0.612684
0.609826
0.585545
0.548371
0.723565
0.502223
0.79236
0.653617
0.705376
0.646128
0.3777
0.780971
0.351465
0.481629
0.66425
0.599759
0.443574
0.513951
0.659352
0.637898
0.509026
0.58871
0.676513
0.569636
0.520581
0.830734
0.618488
0.608051
0.624938
0.553992
0.590229
0.588544
0.57344
0.523062
0.576625
0.63479
0.603679
0.692989
0.627501
0.586763
0.622591
0.496434
0.762262
0.637708
0.625966
0.676216
0.523611
0.724178
0.660459
0.672817
0.523995
0.456974
0.483016
0.53073
0.69269
0.495033
0.746328
0.530935
0.659547
0.542034
0.685235
0.713981
0.652894
0.538442
0.466989
0.420468
0.729609
0.599427
0.604365
0.419757
0.604259
0.770147
0.610557
0.660395
0.605415
0.512198
0.680006
0.554349
0.776468
0.558889
0.546572
0.530392
0.605181
0.531492
0.578328
0.595446
0.700228
0.736584
0.70201
0.488187
0.506105
0.581937
0.531853
0.628422
0.699834
0.697855
0.729839
0.818081
0.684165
0.490931
0.559828
0.495163
0.60145
0.766063
0.71475
0.648118
0.436644
0.525688
0.513524
0.712526
0.636002
0.581496
0.619432
0.59813
0.710894
0.503884
0.642637
0.638001
0.579347
0.517547
0.521444
0.666342
0.601475
0.472822
0.526585
0.692099
0.761096
0.510827
0.650857
0.62329
0.530234
0.722703
0.350985
0.646374
0.52301
0.736352
0.410665
0.44442
0.739297
0.754331
0.425577
0.638371
0.670768
0.676125
0.488629
0.692906
0.684401
0.533333
0.526815
0.585827
0.370431
0.667951
0.534736
0.762988
0.592966
0.638962
0.612053
0.640065
0.596733
0.641666
0.715669
0.445258
0.510336
0.53629
0.781686
0.675243
0.582799
0.69402
0.640097
0.706866
0.520286
0.775884
0.453701
0.557945
0.499622
0.762865
0.442244
0.608884
0.702953
0.373681
0.432582
0.555747
0.492149
0.533579
0.504
0.620414
0.657279
0.448581
0.587504
0.507425
0.804254
0.600406
0.612133
0.385089
0.619202
0.647474
0.595408
0.672318
0.593082
0.507191
0.506787
0.743681
0.553264
0.587878
0.469119
0.647687
0.702354
0.229397
0.630127
0.756694
0.66304
0.455676
0.540507
0.565774
0.524137
0.616216
0.714172
0.483677
0.55696
0.627892
0.529218
0.665943
0.599696
0.459218
0.632159
0.646957
0.426804
0.472415
0.774514
0.459002
0.447639
0.596173
0.609783
0.610692
0.501732
0.610096
0.635565
0.639716
0.493271
0.632699
0.857694
0.605714
0.583721
0.423181
0.667028
0.630771
0.657616
0.628355
0.59958
0.610391
0.584597
0.624242
0.451438
0.621418
0.5717
0.558176
0.595182
0.676738
0.720177
0.704812
0.554445
0.471816
0.565746
0.580836
0.588375
0.631035
0.676138
0.712375
0.527172
0.498578
0.509078
0.656925
0.603703
0.664764
0.646257
0.688115
0.657816
0.620845
0.573035
0.637422
0.48338
0.562654
0.618815
0.54599
0.51418
0.518751
0.648975
0.569201
0.619366
0.486083
0.478697
0.629097
0.593784
0.559335
0.537237
0.575764
0.69964
0.835665
0.551656
0.65158
0.574878
0.589931
0.574563
0.570595
0.709301
0.520663
0.570968
0.646644
0.642281
0.558494
0.853064
0.530194
0.534255
0.846225
0.537044
0.629472
0.588105
0.707762
0.562927
0.645751
0.581816
0.643032
0.641361
0.574086
0.652967
0.630572
0.550007
0.335373
0.591228
0.460176
0.629879
0.644897
0.554631
0.364727
0.482868
0.488181
0.556905
0.722117
0.553708
0.673141
0.412
0.598123
0.441538
0.745828
0.640267
0.601507
0.710309
0.572905
0.654931
0.682674
0.714171
0.662965
0.688733
0.617539
0.573998
0.744099
0.516898
0.57366
0.537672
0.538399
0.48403
0.669782
0.502065
0.79861
0.519916
0.461443
0.620271
0.699665
0.499246
0.666239
0.623297
0.561878
0.689969
0.35324
0.65311
0.548815
0.774431
0.513851
0.694676
0.545894
0.566175
0.542357
0.605987
0.470039
0.669734
0.616773
0.62651
0.648742
0.511303
0.578015
0.620507
0.761464
0.620783
0.652856
0.701449
0.519158
0.433458
0.486426
0.628889
0.5684
0.797263
0.546855
0.582063
0.74049
0.559634
0.516672
0.64583
0.618489
0.466874
0.6109
0.714898
0.587993
0.568692
0.618164
0.582432
0.675669
0.506449
0.671291
0.692544
0.550217
0.515813
0.473442
0.560748
0.545511
0.590001
0.873201
0.58036
0.751135
0.695798
0.538061
0.597917
0.45655
0.623181
0.531258
0.495405
0.61004
0.502603
0.781764
0.452672
0.585473
0.661964
0.538094
0.521416
0.706951
0.719407
0.6374
0.397512
0.546107
0.848261
0.647778
0.681936
0.514119
0.60706
0.613377
0.480879
0.589685
0.558442
0.534492
0.440113
0.595846
0.701734
0.580807
0.628498
0.606458
0.520426
0.597268
0.624351
0.760194
0.529166
0.468292
0.715135
0.564616
0.609864
0.601873
0.674967
0.624952
0.534027
0.580752
0.348824
0.663109
0.671814
0.621273
0.441546
0.649053
0.482778
0.732517
0.592107
0.510839
0.630959
0.501298
0.739674
0.677727
0.577357
0.617917
0.494004
0.707494
0.460222
0.432498
0.517848
0.732678
0.549261
0.549546
0.607153
0.569482
0.779105
0.440059
0.553891
0.528944
0.306767
0.610193
0.578118
0.558949
0.74239
0.680067
0.741108
0.610958
0.610431
0.616229
0.666387
0.644711
0.570032
0.696235
0.690154
0.60565
0.642458
0.700091
0.730136
0.555489
0.761384
0.506829
0.620491
0.567844
0.49765
0.576745
0.436852
0.758193
0.571207
0.642589
0.606766
0.743779
0.554921
0.542812
0.58824
0.515705
0.600801
0.710431
0.843684
0.578219
0.462628
0.530061
0.564056
0.48155
0.849468
0.463034
0.58872
0.709057
0.536516
0.653056
0.4847
0.587093
0.784839
0.506466
0.627795
0.648011
0.450682
0.512706
0.679949
0.588689
0.698733
0.67708
0.525606
0.542344
0.584219
0.638114
0.795699
0.643853
0.602714
0.631067
0.562293
0.658786
0.607663
0.621956
0.656213
0.622481
0.614013
0.620879
0.610128
0.577523
0.353823
0.481119
0.548171
0.799699
0.538374
0.575139
0.446924
0.706988
0.633136
0.637343
0.712619
0.623706
0.525925
0.576001
0.638391
0.715566
0.508465
0.63758
0.518128
0.599941
0.536147
0.616466
0.686855
0.536706
0.596589
0.580049
0.70578
0.57761
0.627559
0.527352
0.814304
0.565247
0.626854
0.774372
0.618351
0.651286
0.739072
0.769716
0.647586
0.623877
0.623097
0.53467
0.419931
0.527772
0.560564
0.562671
0.509737
0.389106
0.725097
0.414404
0.671697
0.538109
0.47918
0.510357
0.525489
0.361078
0.518291
0.536332
0.501817
0.726373
0.601679
0.511819
0.65154
0.303237
0.502557
0.682226
0.740303
0.812475
0.645493
0.563423
0.41816
0.679571
0.581677
0.744945
0.70395
0.646942
0.674447
0.472857
0.604436
0.561057
0.796307
0.611591
0.565539
0.690985
0.455996
0.467002
0.451356
0.5304
0.56026
0.711078
0.583874
0.405107
0.497918
0.599317
0.554078
0.589822
0.638077
0.815979
0.758122
0.501397
0.455035
0.752424
0.65344
0.647499
0.497995
0.618501
0.589283
0.550277
0.578333
0.666114
0.533273
0.500763
0.718774
0.639373
0.621374
0.568259
0.562739
0.71506
0.623953
0.664423
0.452597
0.605475
0.563911
0.52343
0.684488
0.515528
0.57915
0.38984
0.596262
0.616148
0.460541
0.637893
0.643568
0.625684
0.611208
0.420745
0.730523
0.733177
0.565988
0.726463
0.481167
0.558406
0.596561
0.659113
0.548232
0.556494
0.531908
0.386498
0.76413
0.494649
0.668404
0.538215
0.44275
0.784727
0.662556
0.592625
0.613637
0.505153
0.61406
0.552794
0.621997
0.460854
0.466703
0.454495
0.614696
0.882246
0.648358
0.574984
0.601859
0.659819
0.810019
0.751869
0.59652
0.507142
0.674204
0.660367
0.621099
0.562076
0.772214
0.646415
0.545786
0.529443
0.453956
0.678587
0.44922
0.490633
0.620581
0.532986
0.648289
0.620008
0.553753
0.394572
0.598448
0.458035
0.696353
0.676127
0.504696
0.617772
0.730517
0.76097
0.722958
0.59503
0.657902
0.44681
0.701724
0.707955
0.462417
0.700714
0.624804
0.708063
0.598655
0.693798
0.610968
0.527248
0.563159
0.594286
0.816333
0.566264
0.547305
0.70837
0.441087
0.718009
0.443293
0.485053
0.665241
0.523012
0.544278
0.558848
0.619377
0.627282
0.620742
0.602624
0.467949
0.724894
0.480347
0.61844
0.600126
0.515119
0.615327
0.594069
0.363277
0.619226
0.547684
0.505286
0.391885
0.606119
0.765582
0.83082
0.608307
0.530277
0.493737
0.836866
0.525011
0.450518
0.565136
0.586304
0.544448
0.821114
0.675689
0.640883
0.779071
0.592032
0.730138
0.591118
0.50647
0.467088
0.64217
0.540615
0.443199
0.738969
0.638363
0.723967
0.583739
0.463193
0.603078
0.58855
0.728481
0.503177
0.603694
0.670864
0.58073
0.571515
0.632866
0.728531
0.640194
0.385449
0.511351
0.47724
0.710092
0.621095
0.683973
0.440725
0.659155
0.669856
0.498467
0.639972
0.517087
0.446449
0.640587
0.553141
0.406964
0.508107
0.66857
0.631282
0.65153
0.835751
0.602678
0.804557
0.550133
0.800077
0.663404
0.779681
0.594254
0.53451
0.439448
0.644497
0.50994
0.66693
0.706901
0.507882
0.692758
0.385234
0.234184
0.661902
0.593572
0.560503
0.645595
0.492817
0.527838
0.721227
0.599748
0.470467
0.603574
0.522486
0.509723
0.641212
0.473837
0.557395
0.662343
0.62724
0.674848
0.541951
0.714335
0.60235
0.700264
0.728603
0.643769
0.574308
0.530087
0.583406
0.607909
0.598542
0.684731
0.686132
0.358894
0.743867
0.715586
0.818708
0.57108
0.654224
0.830809
0.691871
0.617786
0.685414
0.664974
0.598996
0.623356
0.47782
0.697642
0.591102
0.523676
0.660902
0.621363
0.642693
0.516277
0.609293
0.641624
0.648558
0.519868
0.657849
0.742655
0.589044
0.531552
0.441273
0.686585
0.63453
0.519608
0.592282
0.658265
0.552711
0.553822
0.578969
0.549678
0.528067
0.592337
0.542623
0.549721
0.476864
0.621455
0.531778
0.357591
0.492944
0.599124
0.646963
0.560366
0.659164
0.741068
0.696103
0.360224
0.605479
0.595249
0.68014
0.655985
0.435265
0.574919
0.593284
0.684358
0.693627
0.517294
0.412038
0.379219
0.608683
0.546335
0.569121
0.659032
0.583164
0.463132
0.792123
0.645027
0.57471
0.569202
0.371567
0.302795
0.579604
0.65833
0.630254
0.696489
0.562909
0.521529
0.653975
0.564689
0.343121
0.537903
0.477931
0.42844
0.483721
0.452888
0.33391
0.746133
0.629553
0.586874
0.522354
0.747438
0.559813
0.578294
0.500998
0.696253
0.652452
0.681475
0.460585
0.807583
0.665046
0.517625
0.688835
0.607683
0.618776
0.494246
0.657938
0.485003
0.469888
0.576681
0.721419
0.591556
0.572228
0.573641
0.833255
0.525688
0.614765
0.41468
0.602979
0.5932
0.666182
0.744309
0.468698
0.613329
0.695919
0.454081
0.606908
0.577311
0.571348
0.637596
0.51745
0.644677
0.794264
0.589446
0.564654
0.544702
0.58849
0.512588
0.547789
0.640023
0.74202
0.700558
0.663411
0.587499
0.63175
0.752822
0.569664
0.57583
0.593302
0.603977
0.666543
0.659222
0.736913
0.59029
0.415524
0.562126
0.607628
0.639377
0.454546
0.57802
0.754878
0.544349
0.559791
0.480765
0.530343
0.656097
0.667434
0.628769
0.613049
0.572644
0.619939
0.559228
0.749088
0.810415
0.796657
0.56042
0.504976
0.594697
0.514982
0.580125
0.623054
0.669162
0.660003
0.67406
0.703951
0.675762
0.590641
0.567191
0.453346
0.845559
0.768691
0.363394
0.512466
0.552598
0.481259
0.605837
0.839439
0.667667
0.622593
0.625476
0.64344
0.590349
0.634101
0.554301
0.768011
0.539876
0.593805
0.548028
0.652043
0.554458
0.384575
0.597581
0.342589
0.587187
0.704619
0.700109
0.603746
0.586673
0.655587
0.439287
0.587596
0.623256
0.677183
0.759174
0.588352
0.684327
0.677098
0.68736
0.681461
0.438089
0.583464
0.447689
0.608245
0.592124
0.625115
0.637851
0.653191
0.684686
0.558913
0.599084
0.64812
0.675714
0.763796
0.633953
0.607314
0.434073
0.528351
0.528753
0.555246
0.563488
0.475017
0.596327
0.550659
0.701071
0.564097
0.602721
0.618189
0.636422
0.567184
0.606002
0.44919
0.465901
0.653093
0.57809
0.470176
0.661829
0.573856
0.592716
0.578254
0.619108
0.611146
0.619282
0.472854
0.599012
0.518072
0.591586
0.677025
0.430958
0.614691
0.647396
0.433559
0.490615
0.66123
0.551908
0.770642
0.542151
0.686662
0.525688
0.565508
0.607764
0.55115
0.66492
0.643939
0.648075
0.604429
0.479878
0.766074
0.648539
0.637693
0.628198
0.532709
0.672542
0.624996
0.533074
0.727019
0.671113
0.516221
0.521669
0.350701
0.664111
0.448747
0.623625
0.447362
0.641354
0.795596
0.658815
0.485653
0.564372
0.651154
0.673811
0.504703
0.481577
0.717889
0.705731
0.576772
0.747103
0.47184
0.451852
0.568975
0.422353
0.651437
0.660845
0.527704
0.625742
0.732565
0.476368
0.556785
0.601388
0.603724
0.450622
0.67406
0.571181
0.55941
0.559233
0.663394
0.63006
0.600599
0.496076
0.697891
0.697692
0.569465
0.816903
0.709519
0.637823
0.540809
0.647022
0.494116
0.429821
0.780251
0.672802
0.743751
0.797624
0.612302
0.599966
0.523456
0.658411
0.658375
0.572324