/*--------------------------------*- C++ -*----------------------------------*\
  =========                 |
  \\      /  F ield         | OpenFOAM: The Open Source CFD Toolbox
   \\    /   O peration     | Website:  https://openfoam.org
    \\  /    A nd           | Version:  7
     \\/     M anipulation  |
\*---------------------------------------------------------------------------*/
FoamFile
{
    version     2.0;
    format      ascii;
    class       volScalarField;
    location    "0";
    object      epss;
}
// * * * * * * * * * * * * * * * * * * * * * * * * * * * * * * * * * * * * * //

dimensions      [0 0 0 0 0 0 0];

internalField   nonuniform List<scalar> 
196256
(
0.451551
0.582875
0.735365
0.4938
0.507379
0.561327
0.504748
0.549844
0.582899
0.693844
0.616312
0.504035
0.417129
0.483672
0.591459
0.649341
0.595443
0.858822
0.563148
0.662255
0.507764
0.529164
0.582221
0.553503
0.662493
0.643285
0.629418
0.602375
0.457871
0.664335
0.618633
0.602079
0.499725
0.355503
0.758977
0.575816
0.528011
0.735569
0.701039
0.738893
0.726057
0.705486
0.66933
0.752895
0.611215
0.630045
0.717707
0.536859
0.529229
0.577485
0.7921
0.548602
0.594153
0.702974
0.666247
0.718543
0.625282
0.516458
0.424326
0.655177
0.551758
0.705745
0.657053
0.513921
0.541208
0.466486
0.688592
0.532482
0.552263
0.767993
0.642863
0.688666
0.605359
0.694955
0.620716
0.586817
0.588198
0.74935
0.48973
0.295276
0.614932
0.743568
0.674425
0.580544
0.456218
0.619113
0.824573
0.520101
0.58717
0.73134
0.730566
0.596142
0.477956
0.643128
0.580997
0.564126
0.739558
0.499219
0.702589
0.563883
0.417026
0.63421
0.562342
0.560033
0.600987
0.474397
0.52739
0.64494
0.525867
0.644475
0.727421
0.588315
0.59742
0.753587
0.577005
0.636861
0.630669
0.776242
0.551851
0.617734
0.798599
0.450643
0.444997
0.759993
0.803715
0.725574
0.324731
0.719457
0.63366
0.599215
0.296673
0.526851
0.712695
0.670063
0.669573
0.508378
0.546934
0.449582
0.564601
0.584136
0.67102
0.72147
0.58955
0.654143
0.62285
0.761267
0.680257
0.789391
0.499815
0.587433
0.606311
0.83901
0.694742
0.589035
0.518931
0.444845
0.698087
0.66066
0.559192
0.630459
0.573078
0.555767
0.613889
0.543923
0.647813
0.714083
0.784419
0.460161
0.705805
0.588405
0.622808
0.56626
0.618749
0.742039
0.556523
0.502395
0.482584
0.690786
0.570554
0.578593
0.666629
0.728692
0.709487
0.56337
0.710508
0.503988
0.522499
0.614431
0.497891
0.714342
0.676323
0.522885
0.692454
0.665533
0.646562
0.818642
0.68271
0.602851
0.580558
0.611109
0.653744
0.685708
0.758644
0.640924
0.640009
0.693694
0.712441
0.542559
0.631392
0.681619
0.666998
0.522427
0.607951
0.736304
0.493238
0.677209
0.420922
0.478826
0.632179
0.576913
0.554161
0.574841
0.640323
0.560147
0.569927
0.783586
0.66577
0.707694
0.560344
0.587184
0.563252
0.503262
0.550931
0.601822
0.77362
0.653041
0.598991
0.676297
0.457472
0.57829
0.591103
0.589755
0.460295
0.660269
0.623229
0.628547
0.80457
0.499621
0.634933
0.523088
0.523472
0.626786
0.712435
0.605624
0.519555
0.589802
0.590792
0.71051
0.552102
0.659768
0.57088
0.451011
0.629021
0.723263
0.604679
0.548069
0.608543
0.531241
0.560877
0.609545
0.478933
0.496486
0.735803
0.581779
0.623741
0.568559
0.584139
0.545508
0.694302
0.391724
0.441193
0.708433
0.635883
0.654927
0.642699
0.657427
0.462578
0.713201
0.451493
0.632324
0.487399
0.756808
0.520769
0.547192
0.495036
0.660552
0.471215
0.654093
0.54905
0.791132
0.638605
0.594117
0.453145
0.671985
0.493145
0.663813
0.720738
0.641033
0.630274
0.687255
0.504626
0.593769
0.484689
0.595729
0.486621
0.516893
0.708864
0.585457
0.559924
0.682814
0.553173
0.50855
0.512458
0.679517
0.548928
0.613965
0.521819
0.566276
0.614899
0.690187
0.622111
0.653421
0.656364
0.565381
0.690451
0.501998
0.505584
0.595259
0.619381
0.531915
0.642675
0.599713
0.704552
0.706406
0.596935
0.509823
0.514024
0.653535
0.726016
0.828083
0.748842
0.632516
0.483234
0.528949
0.699943
0.509236
0.728267
0.483382
0.640036
0.542081
0.423793
0.481762
0.63922
0.543376
0.655136
0.590044
0.55775
0.841921
0.685857
0.700477
0.701116
0.565987
0.564538
0.832335
0.601684
0.562393
0.780999
0.717063
0.457783
0.506139
0.740697
0.730015
0.455073
0.776681
0.507397
0.397214
0.648669
0.687674
0.701997
0.506995
0.624844
0.705071
0.564444
0.779731
0.608341
0.550286
0.592568
0.59627
0.599536
0.552781
0.742276
0.487694
0.480742
0.606161
0.555808
0.673955
0.439996
0.702844
0.520845
0.576006
0.604617
0.437267
0.616191
0.561546
0.646937
0.513058
0.652394
0.692574
0.692825
0.413422
0.560496
0.644337
0.585423
0.351326
0.613474
0.473688
0.588514
0.588058
0.611963
0.580698
0.546462
0.66823
0.566382
0.465725
0.717864
0.648098
0.629655
0.473836
0.659686
0.685687
0.524481
0.603496
0.655675
0.608709
0.6397
0.514078
0.628942
0.434625
0.600496
0.601322
0.533106
0.621079
0.671992
0.586628
0.528702
0.574457
0.567813
0.70252
0.692904
0.339154
0.575625
0.525437
0.670086
0.654197
0.416992
0.542282
0.57735
0.602305
0.828624
0.764399
0.667446
0.571353
0.560046
0.623556
0.767341
0.478639
0.733372
0.61103
0.732967
0.546881
0.66206
0.610945
0.439245
0.507117
0.594786
0.604111
0.576052
0.53954
0.755203
0.554034
0.560061
0.726867
0.643251
0.607892
0.682287
0.451899
0.497903
0.575171
0.62029
0.292859
0.552104
0.566515
0.458265
0.460881
0.70692
0.55312
0.418338
0.727892
0.686162
0.611738
0.651884
0.641981
0.501688
0.615786
0.730939
0.512299
0.631808
0.600057
0.474515
0.591204
0.493626
0.790104
0.316857
0.629337
0.715303
0.402618
0.538149
0.611243
0.646468
0.605752
0.495856
0.750167
0.611561
0.66365
0.501692
0.752771
0.492287
0.707516
0.640499
0.743919
0.689722
0.501578
0.663397
0.719065
0.565029
0.593368
0.50636
0.627309
0.634342
0.637031
0.702574
0.521092
0.495271
0.666937
0.655716
0.458125
0.454399
0.706142
0.518106
0.699067
0.560721
0.61251
0.549443
0.756639
0.630248
0.458564
0.57154
0.603109
0.63313
0.753932
0.4572
0.700488
0.507228
0.568446
0.67432
0.726644
0.612818
0.6355
0.690963
0.524293
0.509578
0.622379
0.667562
0.591145
0.531265
0.551346
0.724752
0.678979
0.716061
0.552351
0.696052
0.455207
0.540215
0.646781
0.540399
0.412929
0.65734
0.653494
0.773948
0.589093
0.480534
0.579543
0.80602
0.56877
0.595152
0.491353
0.675803
0.575252
0.654772
0.58951
0.586163
0.714601
0.775271
0.720521
0.580313
0.496419
0.581621
0.557244
0.595057
0.570031
0.432871
0.439805
0.511063
0.607125
0.6406
0.670267
0.644675
0.602611
0.503329
0.618655
0.416227
0.433638
0.608043
0.613772
0.573376
0.644321
0.703217
0.607185
0.652685
0.616609
0.542906
0.732878
0.739425
0.553646
0.685157
0.710878
0.535566
0.694972
0.628386
0.619699
0.794898
0.772389
0.493815
0.567582
0.589114
0.61153
0.483006
0.582298
0.504278
0.61181
0.281785
0.454089
0.546749
0.538801
0.731466
0.480013
0.538313
0.743537
0.44348
0.569698
0.82732
0.616572
0.789573
0.640327
0.385583
0.533255
0.754506
0.599686
0.513681
0.471228
0.566083
0.443376
0.59219
0.475284
0.694971
0.475705
0.662978
0.673258
0.416214
0.682406
0.639103
0.611389
0.607809
0.671592
0.509
0.566837
0.655455
0.739842
0.460947
0.615448
0.600782
0.750921
0.451022
0.68991
0.635942
0.458237
0.471943
0.45905
0.576076
0.58432
0.665694
0.657378
0.688033
0.717174
0.69958
0.680476
0.639265
0.698099
0.556244
0.609854
0.415199
0.647093
0.606126
0.557446
0.600519
0.683452
0.70939
0.596521
0.644488
0.70357
0.670422
0.566063
0.569754
0.582381
0.550029
0.590239
0.552353
0.587382
0.592681
0.706257
0.589452
0.590887
0.651405
0.547181
0.662574
0.586864
0.768694
0.471633
0.531125
0.573347
0.542159
0.488912
0.655266
0.733558
0.72361
0.602805
0.606302
0.724238
0.533296
0.492048
0.473058
0.574407
0.733818
0.578208
0.631126
0.743193
0.579645
0.578766
0.598716
0.491691
0.54885
0.699248
0.557951
0.475851
0.586788
0.58981
0.673467
0.67798
0.407513
0.584459
0.530796
0.585593
0.758362
0.707232
0.418992
0.530599
0.674706
0.566017
0.691744
0.531316
0.689484
0.405048
0.640186
0.614833
0.731236
0.673052
0.486323
0.403117
0.774563
0.70012
0.600384
0.335291
0.710297
0.650605
0.567487
0.444072
0.433762
0.491142
0.643545
0.488931
0.737221
0.669534
0.679394
0.482974
0.732343
0.667126
0.733386
0.608381
0.404317
0.450539
0.69673
0.668823
0.627051
0.560188
0.591743
0.501479
0.641004
0.663932
0.518318
0.578488
0.627164
0.732719
0.606296
0.789265
0.54531
0.742267
0.67875
0.813337
0.600796
0.739905
0.637056
0.537619
0.450032
0.676319
0.452872
0.700606
0.732271
0.583135
0.543716
0.555182
0.528767
0.652067
0.620451
0.563725
0.598388
0.721821
0.8119
0.517722
0.478025
0.53386
0.609153
0.731647
0.549
0.584874
0.444111
0.52228
0.469518
0.619089
0.621967
0.636279
0.371119
0.567681
0.510872
0.718301
0.660247
0.591678
0.392015
0.5928
0.760323
0.596097
0.683207
0.764063
0.446657
0.635693
0.52522
0.737018
0.619143
0.547763
0.679015
0.526794
0.701039
0.603395
0.586996
0.460301
0.448053
0.570874
0.423126
0.428424
0.721959
0.629415
0.486927
0.407496
0.735992
0.695805
0.476484
0.533824
0.630059
0.597673
0.475483
0.60543
0.494118
0.690866
0.618361
0.668344
0.667712
0.546106
0.639679
0.615242
0.483622
0.473395
0.573819
0.553702
0.618051
0.534781
0.668575
0.588878
0.548301
0.561283
0.449579
0.561627
0.607671
0.690613
0.744984
0.620128
0.659841
0.644701
0.457886
0.491177
0.51131
0.544813
0.523435
0.488377
0.505274
0.808543
0.34158
0.510663
0.505379
0.46397
0.642007
0.566364
0.545578
0.416439
0.581486
0.56438
0.445668
0.537808
0.521842
0.620166
0.661453
0.326283
0.541143
0.682859
0.803419
0.439464
0.553777
0.751539
0.717032
0.489857
0.526295
0.901602
0.442092
0.606033
0.442455
0.530259
0.663951
0.636166
0.488992
0.637472
0.527854
0.554218
0.510669
0.684658
0.536017
0.55377
0.37117
0.550042
0.383141
0.508557
0.666187
0.620175
0.436778
0.593163
0.490218
0.641711
0.534857
0.608754
0.576467
0.541883
0.807546
0.452278
0.757128
0.597082
0.628795
0.647848
0.61485
0.660353
0.639323
0.632544
0.586554
0.459079
0.577567
0.53806
0.52362
0.550543
0.826724
0.65306
0.655159
0.661166
0.372872
0.730428
0.570455
0.650598
0.557856
0.522535
0.691986
0.495931
0.658786
0.517013
0.626994
0.663709
0.658119
0.627992
0.479656
0.536673
0.692362
0.574698
0.62803
0.650948
0.570465
0.489363
0.475838
0.619294
0.564398
0.453465
0.585363
0.689979
0.664904
0.517204
0.692407
0.378283
0.514815
0.68446
0.622138
0.494039
0.599595
0.736204
0.469252
0.419271
0.691886
0.744247
0.6013
0.638421
0.497183
0.446151
0.584953
0.512719
0.586085
0.55679
0.701872
0.753837
0.488001
0.635531
0.614985
0.546816
0.485006
0.6246
0.52596
0.556134
0.694845
0.621466
0.466823
0.5371
0.644247
0.548052
0.577937
0.545356
0.704392
0.592214
0.765455
0.65004
0.662976
0.699364
0.718703
0.31247
0.616785
0.63554
0.600103
0.582365
0.643788
0.633035
0.572292
0.657999
0.564144
0.677162
0.549261
0.706272
0.593064
0.563325
0.604383
0.532307
0.636742
0.601092
0.565378
0.542152
0.663159
0.491542
0.597976
0.493501
0.605521
0.538454
0.625759
0.782114
0.654853
0.700278
0.384016
0.618695
0.59794
0.510713
0.776494
0.70173
0.477169
0.541645
0.597711
0.688634
0.583008
0.671884
0.609623
0.58468
0.591424
0.533647
0.695594
0.507679
0.462104
0.561611
0.711118
0.686862
0.683894
0.718016
0.586788
0.416592
0.558306
0.70591
0.605403
0.642441
0.695141
0.486527
0.726632
0.553589
0.586409
0.543833
0.564277
0.480754
0.708512
0.61617
0.762015
0.676701
0.67053
0.607589
0.795854
0.415895
0.648149
0.666918
0.5652
0.496504
0.763956
0.53934
0.572225
0.525736
0.514404
0.7259
0.670253
0.619914
0.622618
0.463768
0.518351
0.612109
0.603365
0.35634
0.614813
0.621672
0.636523
0.647027
0.504416
0.450848
0.564663
0.559805
0.593116
0.554441
0.534187
0.456707
0.522137
0.794617
0.758057
0.367813
0.870633
0.465264
0.66352
0.633349
0.793489
0.753549
0.62023
0.611971
0.620995
0.592473
0.663966
0.607409
0.71657
0.62666
0.429801
0.57044
0.728082
0.562213
0.618042
0.401213
0.492919
0.724888
0.494374
0.494264
0.528099
0.470323
0.395107
0.555139
0.604759
0.585886
0.616623
0.550146
0.682481
0.616886
0.666265
0.700098
0.64644
0.662338
0.625661
0.579864
0.666277
0.643632
0.58184
0.675681
0.659092
0.452368
0.679224
0.465997
0.640918
0.485889
0.598901
0.621958
0.422663
0.738238
0.532969
0.544376
0.75111
0.606363
0.439722
0.561508
0.672827
0.829794
0.724571
0.60366
0.591808
0.688164
0.814123
0.701305
0.408397
0.496611
0.667452
0.57409
0.595618
0.627691
0.676921
0.569414
0.505095
0.541647
0.79817
0.371499
0.439374
0.587267
0.624011
0.572744
0.669818
0.608401
0.553878
0.62184
0.735576
0.434056
0.597152
0.649963
0.55844
0.599787
0.539417
0.574138
0.55129
0.453762
0.654781
0.550322
0.613663
0.67012
0.472247
0.670008
0.760651
0.633739
0.480861
0.648207
0.640528
0.457499
0.413878
0.606845
0.741082
0.570918
0.57272
0.568802
0.595761
0.746228
0.456811
0.523447
0.642885
0.498153
0.7586
0.572322
0.593082
0.599183
0.679207
0.467626
0.537081
0.635794
0.562242
0.484394
0.524504
0.416739
0.573961
0.716594
0.546524
0.59771
0.423343
0.47755
0.569764
0.640523
0.598742
0.373944
0.450187
0.658989
0.604842
0.556503
0.535848
0.806079
0.514056
0.561692
0.703724
0.479255
0.561755
0.650535
0.622541
0.749969
0.638794
0.613228
0.469671
0.685063
0.674196
0.66811
0.688732
0.446412
0.743186
0.417792
0.490411
0.644416
0.644572
0.599695
0.628858
0.471067
0.604126
0.572943
0.690419
0.535865
0.722138
0.581554
0.658074
0.685132
0.729098
0.512272
0.73504
0.632627
0.593766
0.734914
0.568386
0.591028
0.654472
0.439291
0.725604
0.598674
0.502463
0.346783
0.526259
0.650757
0.452916
0.593578
0.655062
0.661495
0.663264
0.683213
0.627844
0.653045
0.668084
0.53193
0.476325
0.742497
0.572577
0.599577
0.599985
0.553173
0.841639
0.641489
0.632987
0.641366
0.522551
0.501095
0.580724
0.63596
0.435027
0.714947
0.348873
0.440238
0.657207
0.586264
0.460627
0.469055
0.583113
0.595074
0.559388
0.715186
0.385477
0.502076
0.589346
0.435546
0.79801
0.58345
0.710144
0.672269
0.475306
0.527408
0.597182
0.619356
0.582639
0.834294
0.712113
0.472264
0.581096
0.616148
0.567526
0.615255
0.661147
0.756677
0.65299
0.670656
0.850977
0.67791
0.515401
0.517047
0.383803
0.454521
0.745516
0.54253
0.517957
0.659021
0.672544
0.640426
0.601661
0.506462
0.512041
0.549117
0.522293
0.610562
0.481027
0.665853
0.542424
0.632687
0.43741
0.676268
0.478624
0.565137
0.579223
0.486165
0.490814
0.432616
0.635307
0.549055
0.523652
0.386688
0.353571
0.555248
0.445716
0.673934
0.401193
0.647487
0.366941
0.529684
0.552416
0.572698
0.598823
0.689376
0.804815
0.572149
0.771784
0.581729
0.544552
0.645374
0.536272
0.600475
0.779216
0.690446
0.565339
0.612645
0.770504
0.663085
0.44233
0.641467
0.506127
0.649238
0.726055
0.412859
0.652405
0.536373
0.480051
0.385902
0.795412
0.579881
0.515964
0.523318
0.61124
0.721127
0.628863
0.609175
0.510824
0.541399
0.584239
0.682606
0.591033
0.560475
0.633111
0.420677
0.684638
0.586845
0.515376
0.477455
0.683463
0.634592
0.402571
0.559977
0.594866
0.485677
0.667619
0.516926
0.664291
0.543596
0.625576
0.87268
0.607663
0.607731
0.543596
0.724283
0.705848
0.529428
0.519174
0.597957
0.543117
0.443405
0.455221
0.592775
0.64475
0.57443
0.558608
0.55556
0.612148
0.553425
0.505846
0.514389
0.629923
0.541045
0.513282
0.532489
0.507808
0.449325
0.534678
0.478643
0.503801
0.641369
0.592457
0.656998
0.504203
0.635385
0.630542
0.905849
0.69927
0.673583
0.593645
0.581431
0.618288
0.494577
0.57093
0.585119
0.581414
0.618716
0.701001
0.562121
0.646654
0.620955
0.506133
0.546633
0.439501
0.727066
0.714993
0.640917
0.590827
0.492532
0.536397
0.610509
0.650529
0.40759
0.565544
0.767167
0.715758
0.702297
0.650918
0.560943
0.603031
0.66973
0.598183
0.501161
0.722843
0.687194
0.657016
0.5617
0.773808
0.643204
0.5685
0.739061
0.666601
0.615763
0.450458
0.484274
0.568425
0.609732
0.662009
0.418438
0.807599
0.644693
0.542
0.571285
0.869851
0.700432
0.581587
0.479857
0.616316
0.484066
0.6226
0.565781
0.537752
0.649169
0.590232
0.625022
0.700849
0.572545
0.716743
0.605748
0.519266
0.704322
0.59832
0.734806
0.674692
0.614559
0.611942
0.594001
0.565115
0.652805
0.576021
0.616453
0.60952
0.58713
0.443074
0.514424
0.540288
0.575845
0.656111
0.619662
0.671686
0.291445
0.444748
0.739777
0.620234
0.72096
0.669918
0.700374
0.577191
0.707684
0.534263
0.640254
0.737294
0.575216
0.649516
0.605175
0.519858
0.811679
0.509765
0.593113
0.5862
0.536457
0.628991
0.452777
0.619942
0.495305
0.7186
0.730327
0.614301
0.456207
0.548179
0.714268
0.549516
0.541836
0.70824
0.600289
0.615142
0.600563
0.451155
0.423022
0.645586
0.471153
0.632601
0.536517
0.538115
0.549284
0.410551
0.772048
0.555573
0.537562
0.760281
0.575577
0.445179
0.658659
0.655078
0.746646
0.834963
0.562552
0.676298
0.676466
0.641231
0.57935
0.424325
0.689316
0.491314
0.616415
0.48031
0.553438
0.531978
0.503833
0.640791
0.648707
0.716649
0.600803
0.499544
0.61116
0.609448
0.787265
0.530173
0.547735
0.652743
0.597578
0.709985
0.591522
0.673632
0.692561
0.461909
0.638307
0.789515
0.628847
0.393983
0.71723
0.537144
0.579818
0.502271
0.649054
0.685615
0.741009
0.619876
0.529964
0.56496
0.532933
0.737988
0.554765
0.760319
0.525878
0.731469
0.75623
0.74666
0.639487
0.610793
0.633448
0.505525
0.450972
0.849352
0.58673
0.800957
0.5893
0.645635
0.54094
0.778385
0.381128
0.557537
0.541631
0.750876
0.521573
0.52963
0.621277
0.371421
0.540067
0.609424
0.561672
0.637521
0.626639
0.725874
0.723991
0.385978
0.554691
0.478756
0.7146
0.461791
0.427455
0.763368
0.62199
0.417138
0.625881
0.515483
0.547027
0.498383
0.568773
0.384707
0.624265
0.611863
0.697106
0.60028
0.494769
0.680629
0.569162
0.402754
0.56076
0.560585
0.686078
0.516203
0.46745
0.507174
0.517338
0.554038
0.566775
0.59022
0.52103
0.547543
0.715268
0.638112
0.745442
0.808962
0.540624
0.618052
0.632226
0.616254
0.655766
0.71804
0.349807
0.66401
0.538882
0.583083
0.59935
0.69831
0.670185
0.644236
0.402156
0.503715
0.627019
0.715688
0.667299
0.583882
0.686768
0.505506
0.647959
0.600365
0.660743
0.567193
0.515081
0.64368
0.741314
0.663784
0.595809
0.607013
0.544032
0.510761
0.561511
0.588718
0.588254
0.704886
0.655027
0.713721
0.549245
0.752634
0.627467
0.807232
0.756061
0.459665
0.587145
0.637833
0.60223
0.729567
0.551078
0.648883
0.64959
0.647625
0.808337
0.632045
0.458886
0.749438
0.610677
0.749409
0.582686
0.580919
0.575549
0.541336
0.647436
0.545502
0.571199
0.492951
0.613279
0.774298
0.608815
0.636468
0.632398
0.48961
0.650632
0.555492
0.555292
0.654819
0.514395
0.791157
0.687077
0.501739
0.689322
0.548819
0.667148
0.57896
0.712495
0.526344
0.4457
0.587398
0.743009
0.696143
0.804925
0.648208
0.531216
0.549117
0.600719
0.464694
0.528002
0.728713
0.701248
0.632664
0.459815
0.607491
0.701269
0.714162
0.653943
0.389028
0.683643
0.533757
0.512723
0.498595
0.493823
0.509234
0.697286
0.629332
0.500131
0.610345
0.699686
0.647709
0.600611
0.631742
0.704001
0.567976
0.488494
0.803176
0.456487
0.659893
0.59137
0.473784
0.555802
0.643801
0.624003
0.609587
0.499764
0.441997
0.579915
0.474134
0.647973
0.577309
0.800395
0.698201
0.527756
0.59358
0.676846
0.60815
0.569898
0.781096
0.431396
0.484472
0.720717
0.617077
0.638267
0.524533
0.647219
0.600922
0.520862
0.704364
0.505179
0.675648
0.74808
0.544993
0.446697
0.542974
0.502984
0.603286
0.499947
0.830693
0.699506
0.690635
0.578865
0.608615
0.44823
0.521615
0.537816
0.651837
0.553913
0.564906
0.58465
0.493063
0.707876
0.425589
0.519652
0.679191
0.524374
0.765257
0.62134
0.750609
0.637411
0.790666
0.653529
0.530854
0.806622
0.750742
0.676028
0.463297
0.553663
0.642351
0.410521
0.406344
0.513217
0.827684
0.669586
0.62532
0.612577
0.605052
0.457024
0.654658
0.76896
0.608069
0.709142
0.619342
0.604429
0.711783
0.698925
0.624913
0.769559
0.519474
0.426421
0.714991
0.711496
0.525114
0.532813
0.537723
0.482681
0.445679
0.549961
0.705816
0.708458
0.765114
0.632005
0.473734
0.620446
0.570504
0.647702
0.732507
0.669773
0.581735
0.526816
0.564559
0.684836
0.436511
0.670748
0.634561
0.619048
0.489043
0.73553
0.652333
0.573414
0.772389
0.453456
0.704767
0.406239
0.553678
0.607231
0.638023
0.505603
0.63041
0.496581
0.647018
0.564372
0.599536
0.580088
0.629138
0.578907
0.464649
0.524059
0.729226
0.71425
0.704064
0.65794
0.53479
0.401121
0.456917
0.561466
0.676524
0.560768
0.56963
0.55632
0.541192
0.359126
0.612781
0.724929
0.430688
0.469542
0.664503
0.702382
0.607018
0.615842
0.653985
0.538602
0.773207
0.699513
0.539401
0.534219
0.578181
0.427571
0.554796
0.628926
0.609556
0.681591
0.471354
0.701567
0.568695
0.651982
0.652853
0.676699
0.622448
0.611474
0.550153
0.625461
0.736304
0.574475
0.696751
0.531815
0.445879
0.603846
0.750872
0.662759
0.591104
0.568627
0.648348
0.502094
0.753992
0.670931
0.567084
0.473948
0.783588
0.661506
0.636881
0.404164
0.540843
0.589813
0.757083
0.568669
0.855365
0.496388
0.68646
0.373447
0.604957
0.590943
0.56693
0.554207
0.504951
0.619049
0.450522
0.447874
0.564685
0.624143
0.743735
0.56599
0.735815
0.4603
0.46333
0.474091
0.530682
0.678207
0.537009
0.539383
0.745183
0.489671
0.608538
0.65718
0.788406
0.612483
0.850182
0.511817
0.702444
0.540259
0.705022
0.53893
0.724608
0.741102
0.626545
0.498785
0.627247
0.813872
0.790866
0.576031
0.618158
0.430997
0.545339
0.546592
0.620496
0.641351
0.707974
0.513005
0.582596
0.711542
0.64031
0.390338
0.439707
0.502432
0.690904
0.542201
0.697362
0.740118
0.31495
0.795365
0.512199
0.568063
0.548215
0.665291
0.49633
0.435346
0.811965
0.637298
0.668003
0.564735
0.588002
0.570756
0.601751
0.443968
0.831752
0.773555
0.603857
0.468955
0.543191
0.630199
0.489075
0.681508
0.617076
0.544011
0.566239
0.599497
0.810807
0.604301
0.688149
0.617585
0.675757
0.533442
0.488169
0.690179
0.379127
0.65976
0.678949
0.633306
0.670978
0.620509
0.653658
0.646189
0.787938
0.587653
0.397277
0.69406
0.536102
0.691579
0.63888
0.518794
0.590302
0.638727
0.551795
0.709332
0.686608
0.64311
0.480495
0.606548
0.641186
0.67548
0.577333
0.540328
0.468514
0.57676
0.677181
0.562388
0.652406
0.758443
0.680476
0.531057
0.766489
0.633312
0.611285
0.611296
0.621507
0.483725
0.479655
0.599653
0.673201
0.594339
0.648059
0.709157
0.547961
0.670517
0.689881
0.503773
0.567216
0.549914
0.4902
0.472734
0.695827
0.507039
0.67248
0.539811
0.531506
0.773167
0.659273
0.422386
0.647313
0.54096
0.720196
0.52409
0.815625
0.699125
0.630608
0.574752
0.549009
0.412761
0.494681
0.583553
0.817295
0.539892
0.486453
0.665944
0.657133
0.6822
0.574675
0.650325
0.713834
0.554807
0.542491
0.581529
0.673087
0.493254
0.863781
0.567526
0.450891
0.334049
0.448425
0.546298
0.387521
0.474168
0.516484
0.860284
0.837256
0.596272
0.750343
0.690816
0.631503
0.560767
0.548371
0.674711
0.655064
0.658044
0.685429
0.584777
0.570194
0.47088
0.7488
0.666397
0.565691
0.504153
0.660823
0.69934
0.50089
0.64693
0.605448
0.679729
0.631241
0.500644
0.67861
0.525525
0.650678
0.654451
0.453822
0.613
0.698223
0.386119
0.519345
0.56409
0.587332
0.751007
0.664416
0.591449
0.613845
0.533651
0.656401
0.598152
0.506787
0.596984
0.780855
0.70093
0.681604
0.547089
0.661724
0.707927
0.732122
0.631684
0.503593
0.573173
0.779989
0.631922
0.617964
0.537351
0.642153
0.478823
0.58276
0.702834
0.700284
0.593039
0.652816
0.599376
0.58696
0.833384
0.623936
0.598181
0.739511
0.619913
0.526144
0.700536
0.645168
0.50332
0.717946
0.718282
0.631875
0.657698
0.45824
0.533219
0.622425
0.649626
0.599642
0.636503
0.67901
0.562905
0.548766
0.652659
0.341868
0.670509
0.611497
0.722344
0.720648
0.481451
0.794683
0.639725
0.716254
0.476605
0.702385
0.763696
0.640863
0.585961
0.53814
0.542592
0.609353
0.526136
0.685523
0.530012
0.519833
0.581763
0.698528
0.50965
0.542977
0.690849
0.748274
0.49537
0.616936
0.430705
0.732138
0.669807
0.585464
0.615655
0.637916
0.580057
0.502468
0.612364
0.761841
0.629401
0.511668
0.452911
0.524772
0.791465
0.488926
0.574265
0.656001
0.704517
0.410138
0.510888
0.809189
0.476145
0.441173
0.611628
0.605665
0.607855
0.642089
0.565626
0.640742
0.562411
0.621355
0.60584
0.569117
0.535386
0.549755
0.629137
0.672393
0.657502
0.860246
0.796847
0.770194
0.682023
0.585188
0.600853
0.51296
0.564751
0.538578
0.570804
0.446706
0.650309
0.608444
0.577071
0.635483
0.626142
0.536476
0.684357
0.649173
0.490708
0.50327
0.605344
0.610594
0.582578
0.566999
0.48378
0.740909
0.574258
0.668631
0.658044
0.515346
0.620504
0.560627
0.673092
0.658227
0.504077
0.451231
0.621498
0.679531
0.52375
0.662017
0.660221
0.61434
0.591948
0.526019
0.605884
0.775754
0.520558
0.708454
0.476569
0.58082
0.657883
0.456138
0.478069
0.593456
0.483865
0.591511
0.610306
0.651308
0.643906
0.725829
0.54358
0.734168
0.656147
0.467666
0.579446
0.638146
0.72815
0.402562
0.533273
0.710621
0.782868
0.6438
0.610968
0.467647
0.563454
0.678736
0.481326
0.582362
0.680788
0.7219
0.632959
0.405142
0.585551
0.56801
0.727792
0.732297
0.750601
0.499149
0.491608
0.513747
0.738007
0.581191
0.529544
0.537327
0.725132
0.549706
0.601859
0.646026
0.577968
0.63311
0.622333
0.620231
0.334659
0.716953
0.450266
0.79339
0.709352
0.710082
0.431352
0.569256
0.652463
0.566606
0.585879
0.52522
0.562728
0.522882
0.510753
0.599605
0.719726
0.488788
0.67158
0.703648
0.758674
0.756171
0.755297
0.546741
0.495385
0.583589
0.62975
0.53122
0.591706
0.710451
0.690492
0.503571
0.598331
0.653894
0.600997
0.583618
0.765002
0.751366
0.708973
0.679975
0.513839
0.638896
0.515209
0.587204
0.661286
0.447431
0.719216
0.618214
0.698178
0.4771
0.595953
0.672841
0.867225
0.668493
0.682003
0.53106
0.563037
0.537099
0.561829
0.663933
0.69084
0.752019
0.609446
0.489902
0.567736
0.500839
0.697426
0.4962
0.602755
0.482998
0.422562
0.623338
0.483343
0.582818
0.681967
0.60414
0.683948
0.535883
0.441061
0.729559
0.529233
0.522925
0.597034
0.827969
0.564995
0.42456
0.462522
0.753468
0.509783
0.588342
0.650003
0.378788
0.588925
0.560292
0.552995
0.572276
0.418807
0.673168
0.785499
0.594589
0.643678
0.653207
0.468994
0.660462
0.66011
0.541255
0.550229
0.526817
0.785866
0.563878
0.591539
0.616663
0.560948
0.498063
0.496571
0.575435
0.609644
0.626706
0.721663
0.564046
0.575489
0.556751
0.56925
0.661838
0.642944
0.571923
0.594645
0.585156
0.465098
0.540323
0.553724
0.556643
0.520088
0.696357
0.509361
0.539083
0.601289
0.724444
0.654343
0.613535
0.628862
0.462215
0.727049
0.454674
0.532787
0.519134
0.618349
0.579044
0.618764
0.661941
0.759676
0.670591
0.640121
0.412106
0.711295
0.635183
0.606754
0.655322
0.533166
0.427846
0.582911
0.645308
0.754099
0.517796
0.760319
0.434659
0.531775
0.458892
0.668033
0.519594
0.641572
0.529025
0.520324
0.724621
0.578115
0.611175
0.606191
0.446027
0.76894
0.575517
0.52534
0.538256
0.608549
0.599267
0.568836
0.584759
0.522451
0.752405
0.556421
0.610498
0.786119
0.551542
0.693613
0.588579
0.42388
0.714652
0.630999
0.624376
0.430691
0.430821
0.698744
0.386495
0.445698
0.785028
0.475603
0.82985
0.600903
0.666296
0.421613
0.44442
0.575891
0.485908
0.58711
0.725267
0.533106
0.689079
0.644728
0.451783
0.526329
0.572131
0.533629
0.512391
0.557675
0.638335
0.641279
0.595726
0.384501
0.632795
0.642916
0.648118
0.342032
0.650705
0.705293
0.57967
0.561212
0.502231
0.593286
0.55654
0.436131
0.464626
0.60123
0.68643
0.458765
0.718627
0.46553
0.481736
0.556402
0.622696
0.4924
0.635439
0.571386
0.659376
0.590603
0.690893
0.617362
0.633266
0.599223
0.685128
0.47272
0.44332
0.704706
0.605725
0.569024
0.599418
0.654127
0.680945
0.552791
0.612306
0.482402
0.716003
0.624563
0.65979
0.669095
0.649026
0.551972
0.643154
0.577723
0.584971
0.638269
0.616638
0.52702
0.560582
0.728928
0.589334
0.627402
0.788764
0.628658
0.628554
0.676092
0.473269
0.871041
0.599035
0.535868
0.684111
0.666664
0.668989
0.535184
0.669121
0.56524
0.576154
0.565255
0.584841
0.571208
0.727011
0.71582
0.648507
0.514951
0.547055
0.544215
0.720589
0.733606
0.604577
0.481285
0.615803
0.479021
0.466098
0.65085
0.532875
0.733248
0.688968
0.492346
0.378308
0.489576
0.731109
0.5809
0.705055
0.593212
0.525711
0.719624
0.697863
0.711333
0.588313
0.536467
0.554446
0.826837
0.667563
0.59574
0.670135
0.620841
0.385243
0.509015
0.723434
0.509315
0.719616
0.571141
0.642963
0.562537
0.619899
0.435251
0.581604
0.721902
0.430091
0.670263
0.571312
0.588548
0.728436
0.628312
0.655564
0.569066
0.549479
0.612137
0.508124
0.48857
0.659751
0.536708
0.670488
0.561516
0.49229
0.509167
0.599436
0.527429
0.504007
0.613904
0.547024
0.939443
0.487816
0.540883
0.681296
0.48682
0.679615
0.528901
0.498008
0.613343
0.703654
0.649129
0.714282
0.659106
0.677507
0.614318
0.63968
0.508177
0.547718
0.751358
0.567729
0.545738
0.653475
0.693292
0.679579
0.514076
0.792144
0.606042
0.561077
0.607869
0.627961
0.762685
0.603583
0.576907
0.757423
0.713937
0.625425
0.432592
0.49136
0.750355
0.5134
0.655702
0.349705
0.654458
0.667253
0.784722
0.522925
0.561337
0.619689
0.61917
0.499321
0.658843
0.491884
0.358149
0.501225
0.459893
0.409137
0.486623
0.678062
0.747046
0.568089
0.614408
0.581189
0.505539
0.637814
0.603182
0.597853
0.51498
0.629076
0.801397
0.728738
0.664937
0.669826
0.641267
0.578632
0.631373
0.526536
0.462617
0.594893
0.809144
0.643573
0.424393
0.568407
0.602813
0.737011
0.659791
0.537024
0.590527
0.50978
0.525882
0.651402
0.686276
0.607022
0.601375
0.522337
0.56471
0.753614
0.717784
0.559517
0.661455
0.515161
0.369541
0.745162
0.589914
0.639624
0.621521
0.705061
0.669345
0.679245
0.527407
0.611092
0.674288
0.555491
0.554284
0.530536
0.564223
0.644983
0.599242
0.567082
0.544781
0.555902
0.381565
0.464063
0.601735
0.728706
0.739646
0.641032
0.547165
0.491548
0.620166
0.514408
0.702594
0.677834
0.523805
0.619001
0.52211
0.610068
0.597335
0.631994
0.538819
0.485763
0.688284
0.750045
0.620098
0.50345
0.425761
0.719221
0.620593
0.539178
0.625668
0.784311
0.737983
0.646113
0.631199
0.676226
0.584471
0.623338
0.447097
0.449795
0.557574
0.658845
0.745201
0.602142
0.720662
0.561298
0.613575
0.637789
0.765717
0.367703
0.584242
0.625531
0.72243
0.675736
0.321857
0.406527
0.542823
0.582764
0.565038
0.614508
0.687692
0.713917
0.605283
0.736291
0.606395
0.736282
0.679735
0.699366
0.648152
0.745711
0.748913
0.484209
0.464846
0.580433
0.710368
0.629413
0.751258
0.605951
0.602977
0.661493
0.602038
0.684753
0.575548
0.655233
0.591323
0.620099
0.504649
0.569296
0.540832
0.743575
0.56598
0.378115
0.68274
0.472759
0.707493
0.630287
0.580695
0.484417
0.569359
0.640481
0.496111
0.728583
0.605071
0.624133
0.537849
0.707331
0.817529
0.757018
0.607517
0.645478
0.538121
0.692624
0.487888
0.481448
0.603383
0.619193
0.891808
0.757739
0.648742
0.80379
0.649284
0.685177
0.616758
0.509565
0.583927
0.512663
0.660151
0.572323
0.604177
0.628707
0.729124
0.596945
0.672155
0.613191
0.897139
0.600007
0.58206
0.598242
0.597225
0.652824