/*--------------------------------*- C++ -*----------------------------------*\
  =========                 |
  \\      /  F ield         | OpenFOAM: The Open Source CFD Toolbox
   \\    /   O peration     | Website:  https://openfoam.org
    \\  /    A nd           | Version:  7
     \\/     M anipulation  |
\*---------------------------------------------------------------------------*/
FoamFile
{
    version     2.0;
    format      ascii;
    class       volScalarField;
    location    "0";
    object      epss;
}
// * * * * * * * * * * * * * * * * * * * * * * * * * * * * * * * * * * * * * //

dimensions      [0 0 0 0 0 0 0];

internalField   nonuniform List<scalar> 
150000
(
0.568034
0.549422
0.466388
0.591012
0.584578
0.579629
0.510628
0.513907
0.434057
0.547327
0.58698
0.498491
0.481212
0.61183
0.523787
0.50311
0.585076
0.542034
0.510765
0.506705
0.502709
0.51082
0.589657
0.649514
0.56462
0.565684
0.624596
0.559191
0.570624
0.504604
0.543693
0.591345
0.617071
0.469532
0.584658
0.575769
0.502242
0.533209
0.57711
0.612122
0.543925
0.524934
0.569703
0.480303
0.614009
0.507741
0.475321
0.606579
0.519041
0.569811
0.635043
0.468675
0.610969
0.570602
0.608675
0.542812
0.564669
0.582065
0.520084
0.51362
0.613556
0.496188
0.571273
0.54862
0.624449
0.553561
0.554537
0.433807
0.625938
0.549321
0.56667
0.507038
0.607885
0.626847
0.566801
0.590725
0.512385
0.582323
0.58682
0.49568
0.587539
0.582152
0.586534
0.568055
0.510527
0.524971
0.539711
0.601017
0.479517
0.584672
0.463878
0.541563
0.55198
0.454311
0.575873
0.574749
0.510754
0.495007
0.534882
0.515993
0.500618
0.543436
0.576018
0.448498
0.534516
0.608815
0.473301
0.437148
0.47379
0.535415
0.583788
0.570227
0.529461
0.53779
0.669205
0.560966
0.604209
0.498874
0.477609
0.573332
0.64281
0.44349
0.468196
0.560845
0.502698
0.593171
0.51659
0.585063
0.481764
0.494013
0.531291
0.534857
0.578393
0.659406
0.538297
0.599637
0.630275
0.557452
0.587367
0.661472
0.534882
0.580977
0.583626
0.5691
0.489892
0.504798
0.513704
0.584366
0.546963
0.523882
0.559268
0.544205
0.586125
0.525678
0.596101
0.538757
0.50445
0.523169
0.537167
0.540383
0.517068
0.517147
0.530342
0.632392
0.56938
0.545416
0.591805
0.577781
0.567273
0.505626
0.568619
0.584634
0.622019
0.511934
0.501169
0.577257
0.539212
0.553255
0.53028
0.515841
0.412078
0.523733
0.577328
0.586408
0.515276
0.534478
0.475272
0.61296
0.526232
0.485204
0.571391
0.584962
0.564498
0.50553
0.619977
0.594868
0.483544
0.606109
0.50462
0.521217
0.514967
0.490889
0.55309
0.595387
0.481974
0.514002
0.519784
0.655938
0.526093
0.517623
0.493267
0.558985
0.520882
0.463304
0.558112
0.579136
0.522984
0.578222
0.585851
0.533991
0.521105
0.515946
0.547686
0.581629
0.521092
0.551119
0.532396
0.598838
0.614391
0.562408
0.555759
0.519364
0.539996
0.576105
0.55861
0.510461
0.518209
0.691038
0.477253
0.583347
0.552968
0.43544
0.555535
0.473508
0.57536
0.530351
0.514127
0.469071
0.531284
0.493066
0.569026
0.603268
0.633439
0.556506
0.543044
0.571127
0.590256
0.58537
0.515128
0.568031
0.562008
0.638065
0.495688
0.661022
0.593802
0.549367
0.486604
0.526233
0.625427
0.625121
0.616075
0.558927
0.644542
0.493061
0.489729
0.618975
0.562801
0.54373
0.542619
0.583332
0.487126
0.521022
0.568361
0.592955
0.618974
0.589092
0.516092
0.512365
0.475138
0.513773
0.53336
0.463834
0.66076
0.48065
0.634031
0.572773
0.545659
0.591698
0.488846
0.540227
0.526538
0.570106
0.57898
0.593136
0.593718
0.655041
0.542599
0.521087
0.582356
0.646245
0.527132
0.631948
0.553448
0.59048
0.522926
0.536054
0.473483
0.556289
0.60491
0.610781
0.46149
0.546111
0.563944
0.457879
0.519865
0.614406
0.509613
0.630127
0.499145
0.586454
0.576825
0.604291
0.57212
0.604182
0.58179
0.561905
0.582703
0.492211
0.453852
0.555362
0.611014
0.576686
0.570481
0.638033
0.498332
0.49097
0.584294
0.521428
0.442631
0.520722
0.622143
0.561307
0.561428
0.587536
0.596503
0.528422
0.591819
0.650512
0.527714
0.572992
0.525613
0.549503
0.59417
0.595957
0.445579
0.640515
0.572894
0.519581
0.527644
0.564202
0.645603
0.585042
0.599873
0.411269
0.418869
0.568648
0.557846
0.557472
0.590583
0.558277
0.55987
0.546019
0.559808
0.593475
0.569182
0.530297
0.607584
0.534347
0.642166
0.537467
0.513618
0.519387
0.604397
0.524803
0.483429
0.527438
0.586638
0.583569
0.595536
0.595486
0.504326
0.50628
0.618968
0.619859
0.603208
0.505395
0.477855
0.507801
0.643894
0.519912
0.530959
0.512255
0.47965
0.417669
0.506055
0.607147
0.502677
0.548467
0.476197
0.547937
0.585282
0.622167
0.492755
0.608694
0.548906
0.560242
0.471134
0.520104
0.517855
0.526259
0.58131
0.441624
0.644259
0.622974
0.446156
0.535799
0.588393
0.467174
0.518865
0.499592
0.555674
0.623795
0.563447
0.547573
0.590977
0.603216
0.532153
0.493761
0.547135
0.567814
0.684773
0.598587
0.485672
0.571025
0.512659
0.572922
0.501235
0.47918
0.606425
0.523164
0.594383
0.597705
0.630314
0.569503
0.53555
0.544377
0.638892
0.652543
0.633993
0.507438
0.455495
0.491943
0.546685
0.468195
0.582473
0.506721
0.547449
0.532319
0.681786
0.543403
0.488186
0.487994
0.551568
0.586576
0.563645
0.53588
0.471048
0.609721
0.583678
0.499822
0.567539
0.5268
0.527094
0.553678
0.562923
0.536526
0.496151
0.587227
0.586425
0.640852
0.488734
0.604869
0.508984
0.568563
0.62236
0.490103
0.538483
0.550741
0.535054
0.474203
0.571111
0.523456
0.618029
0.469572
0.515206
0.541012
0.540021
0.651249
0.585996
0.534761
0.409603
0.536053
0.569484
0.53303
0.532718
0.503242
0.468141
0.532244
0.558339
0.464236
0.533373
0.488124
0.495324
0.565651
0.517737
0.530539
0.450223
0.509165
0.546771
0.531498
0.567031
0.533885
0.640417
0.608966
0.585525
0.496091
0.5832
0.570477
0.509513
0.613935
0.477073
0.5203
0.523408
0.527044
0.566331
0.548807
0.61066
0.467496
0.567764
0.567065
0.548088
0.621796
0.513948
0.500495
0.511607
0.581775
0.52165
0.493955
0.605318
0.526463
0.571953
0.608803
0.47824
0.533359
0.568664
0.577512
0.58625
0.582209
0.511198
0.540666
0.510819
0.648466
0.529802
0.597085
0.573141
0.588708
0.510036
0.59085
0.604008
0.581096
0.544478
0.480811
0.553319
0.530237
0.571006
0.520675
0.556455
0.60589
0.559128
0.545177
0.537034
0.615528
0.62178
0.56061
0.582109
0.60777
0.493957
0.478235
0.589808
0.486813
0.475406
0.468827
0.593532
0.523712
0.583762
0.582771
0.559634
0.520032
0.600556
0.625369
0.596255
0.591122
0.542826
0.509999
0.543567
0.524073
0.570718
0.573306
0.655633
0.579933
0.557606
0.608553
0.506473
0.493242
0.578118
0.583777
0.534373
0.533123
0.565147
0.568538
0.466678
0.610154
0.556293
0.550494
0.526414
0.562996
0.556574
0.46211
0.574508
0.54207
0.518991
0.523314
0.599879
0.607327
0.585455
0.53451
0.563273
0.499939
0.586919
0.572936
0.618431
0.515086
0.614974
0.481007
0.503741
0.50557
0.563805
0.5921
0.484191
0.559807
0.584492
0.596212
0.467605
0.548413
0.504257
0.499156
0.620895
0.414261
0.594157
0.546483
0.584037
0.566742
0.543679
0.558194
0.54182
0.597368
0.556344
0.476637
0.560957
0.516749
0.503405
0.510913
0.533434
0.592446
0.549899
0.670455
0.542788
0.563958
0.649607
0.57936
0.604029
0.582444
0.534483
0.596012
0.576123
0.566587
0.535747
0.562787
0.608045
0.54533
0.493859
0.484349
0.527688
0.548551
0.521981
0.503058
0.493332
0.587971
0.644778
0.581329
0.514477
0.599423
0.575115
0.537218
0.533341
0.526132
0.58098
0.717028
0.477993
0.584214
0.567261
0.4653
0.528056
0.464266
0.570607
0.574319
0.632178
0.591157
0.521559
0.502975
0.558632
0.584761
0.546925
0.577419
0.51729
0.549393
0.562761
0.644719
0.60046
0.54653
0.482838
0.609661
0.583058
0.576587
0.537563
0.439633
0.533385
0.469037
0.611377
0.54783
0.576352
0.588898
0.550714
0.485052
0.613746
0.511324
0.517209
0.465748
0.595003
0.520582
0.509444
0.562439
0.638053
0.54422
0.60359
0.527738
0.605657
0.4576
0.434636
0.555227
0.535311
0.536487
0.586279
0.501293
0.622813
0.474355
0.570387
0.594805
0.578985
0.496801
0.602187
0.58166
0.526828
0.659281
0.576469
0.568307
0.605998
0.549663
0.527268
0.524379
0.595253
0.510662
0.532469
0.539636
0.609768
0.524379
0.533685
0.564872
0.626649
0.455651
0.563789
0.638767
0.561483
0.537072
0.531916
0.633223
0.59901
0.593329
0.445418
0.509722
0.539113
0.46689
0.543942
0.501169
0.492126
0.47724
0.65962
0.613763
0.565285
0.542338
0.594255
0.621081
0.460668
0.567798
0.532728
0.565082
0.573283
0.590152
0.542009
0.52615
0.495076
0.490223
0.543115
0.509271
0.54794
0.550299
0.425722
0.617891
0.600676
0.525506
0.469425
0.550407
0.543724
0.548061
0.583481
0.509661
0.677995
0.499169
0.615707
0.504569
0.5363
0.587137
0.54542
0.572237
0.597686
0.579752
0.569155
0.593222
0.607823
0.546467
0.521739
0.599373
0.507016
0.50745
0.470324
0.606016
0.522968
0.566825
0.539414
0.520795
0.530616
0.57381
0.519798
0.541284
0.481507
0.478537
0.558649
0.459869
0.619649
0.482491
0.593745
0.544537
0.582784
0.583136
0.615892
0.540857
0.559052
0.505959
0.514979
0.547236
0.503462
0.575447
0.682145
0.569752
0.587322
0.608921
0.583212
0.600906
0.612934
0.569641
0.594025
0.545553
0.602648
0.528363
0.544424
0.523484
0.589465
0.503955
0.48159
0.440504
0.53614
0.548293
0.50439
0.4687
0.562386
0.598625
0.567322
0.556917
0.480604
0.506754
0.577957
0.536491
0.55087
0.518777
0.492367
0.583217
0.555986
0.473931
0.593026
0.531067
0.515096
0.529012
0.667512
0.517403
0.598258
0.561574
0.535319
0.479788
0.527773
0.625052
0.587776
0.531175
0.529659
0.673162
0.550468
0.529286
0.445969
0.565036
0.561837
0.525731
0.530354
0.586187
0.582208
0.514277
0.568859
0.52855
0.497023
0.69502
0.566621
0.574473
0.584566
0.551726
0.513798
0.457849
0.586525
0.511504
0.579465
0.511383
0.556004
0.563469
0.610366
0.511706
0.511211
0.603469
0.532523
0.558162
0.597336
0.544152
0.57798
0.553864
0.465852
0.506046
0.508529
0.564405
0.484117
0.51588
0.654732
0.521493
0.650665
0.532435
0.46991
0.503564
0.494123
0.52354
0.496558
0.557813
0.555
0.594099
0.474811
0.508668
0.586062
0.633345
0.644079
0.519142
0.521045
0.697952
0.577277
0.618877
0.590553
0.550981
0.546502
0.556541
0.632773
0.558769
0.590794
0.47983
0.549784
0.581896
0.511897
0.501118
0.536735
0.563633
0.658102
0.610528
0.619768
0.606619
0.579857
0.519145
0.553782
0.612757
0.516899
0.567996
0.544019
0.456993
0.523412
0.556104
0.577845
0.55684
0.625284
0.564095
0.524618
0.68997
0.492911
0.475204
0.513616
0.561199
0.587532
0.569994
0.566085
0.588115
0.611504
0.539885
0.516613
0.535282
0.524476
0.488529
0.526677
0.589371
0.563934
0.552475
0.496921
0.539441
0.573182
0.693156
0.521768
0.557773
0.41876
0.478523
0.526598
0.573225
0.488836
0.541326
0.519492
0.546559
0.547823
0.565287
0.505781
0.515315
0.487591
0.52767
0.569443
0.496352
0.494752
0.48266
0.486606
0.548111
0.576369
0.58368
0.469014
0.543367
0.497853
0.551044
0.533641
0.496407
0.502932
0.631228
0.587791
0.540053
0.562125
0.656505
0.611493
0.565704
0.583286
0.574328
0.57872
0.549738
0.514667
0.560853
0.560872
0.509436
0.594051
0.616704
0.560374
0.592888
0.631083
0.593167
0.602762
0.492294
0.538488
0.527084
0.476209
0.562073
0.456599
0.519816
0.542794
0.567345
0.538383
0.446523
0.586575
0.542047
0.535511
0.540024
0.513694
0.531177
0.549114
0.466746
0.591514
0.569006
0.428077
0.581572
0.48963
0.591401
0.597755
0.469296
0.58507
0.599531
0.552908
0.503818
0.614197
0.551348
0.559681
0.535199
0.601361
0.534419
0.544883
0.528607
0.523248
0.595325
0.527964
0.583692
0.540242
0.528103
0.46263
0.502297
0.591704
0.453742
0.576386
0.574441
0.430592
0.486358
0.591751
0.557865
0.498625
0.550719
0.518681
0.628252
0.503731
0.517318
0.577461
0.52907
0.609822
0.603138
0.472171
0.472812
0.525127
0.628504
0.543265
0.486065
0.510181
0.49442
0.650743
0.626112
0.57715
0.566
0.541623
0.496338
0.528055
0.580345
0.556544
0.53199
0.503731
0.595804
0.518604
0.521733
0.521531
0.521198
0.53192
0.586405
0.491723
0.517991
0.452103
0.57017
0.585595
0.402089
0.595537
0.616523
0.57525
0.572318
0.544115
0.484989
0.500318
0.5868
0.545125
0.502071
0.582314
0.527019
0.626765
0.595453
0.575532
0.560335
0.532444
0.604844
0.541645
0.525014
0.455072
0.576196
0.515713
0.501376
0.536272
0.597641
0.517634
0.533175
0.54554
0.591722
0.538122
0.550366
0.600093
0.551364
0.606344
0.630853
0.53993
0.572143
0.575139
0.556459
0.480021
0.558885
0.519937
0.621634
0.602495
0.530745
0.539872
0.519634
0.543892
0.563526
0.550601
0.550859
0.590219
0.537715
0.633035
0.530544
0.59487
0.565935
0.640884
0.496744
0.541612
0.585657
0.681259
0.513477
0.490713
0.479952
0.547779
0.519381
0.560508
0.506081
0.51777
0.519241
0.470002
0.611633
0.617459
0.492536
0.599702
0.570872
0.525561
0.468694
0.527538
0.498768
0.490211
0.498821
0.478667
0.553389
0.596763
0.520102
0.579768
0.447549
0.621913
0.47634
0.571035
0.60308
0.61438
0.579013
0.508183
0.57169
0.552977
0.586574
0.531963
0.564352
0.535933
0.47954
0.576286
0.582571
0.578473
0.548347
0.479432
0.563902
0.569447
0.60369
0.517669
0.532618
0.595668
0.58781
0.519664
0.525599
0.561039
0.632914
0.502435
0.662781
0.588188
0.497459
0.489339
0.463536
0.496562
0.60081
0.640843
0.574207
0.552095
0.535174
0.571432
0.53908
0.57115
0.592086
0.546099
0.558256
0.534338
0.503641
0.589006
0.558078
0.474324
0.617193
0.594651
0.593097
0.551999
0.543548
0.473728
0.554659
0.658639
0.522194
0.449853
0.514898
0.511746
0.582773
0.554537
0.592947
0.598674
0.572852
0.51252
0.443575
0.596111
0.679422
0.563812
0.507179
0.684104
0.630739
0.578301
0.557116
0.544247
0.554456
0.512998
0.57449
0.506693
0.537878
0.538364
0.529278
0.531437
0.455291
0.563277
0.646522
0.613282
0.600815
0.61207
0.442729
0.524014
0.59901
0.543324
0.467478
0.605071
0.534841
0.519348
0.567688
0.546358
0.592038
0.588763
0.603951
0.598458
0.585103
0.590708
0.522709
0.561837
0.58639
0.534568
0.496413
0.511432
0.585735
0.536225
0.591009
0.598172
0.509501
0.604367
0.507963
0.482291
0.572012
0.521454
0.582911
0.553784
0.586518
0.591947
0.590233
0.527399
0.621326
0.638869
0.487557
0.548785
0.519678
0.529448
0.46566
0.586812
0.592202
0.497668
0.559537
0.594821
0.568293
0.512746
0.460104
0.527396
0.541402
0.536163
0.507441
0.522746
0.51337
0.552349
0.479899
0.563004
0.592262
0.620289
0.59826
0.588187
0.463979
0.610521
0.572296
0.534189
0.501453
0.56465
0.522701
0.526861
0.501232
0.550398
0.536898
0.483158
0.565699
0.572004
0.595007
0.498011
0.542639
0.575016
0.579329
0.586887
0.504601
0.522134
0.474756
0.573708
0.625526
0.579658
0.625835
0.591994
0.540311
0.430697
0.494034
0.484927
0.615145
0.612745
0.446931
0.546433
0.497051
0.5257
0.550396
0.532201
0.557811
0.507915
0.537064
0.596458
0.568782
0.587062
0.680494
0.620185
0.596811
0.523189
0.539953
0.617813
0.460782
0.552326
0.606191
0.486574
0.470885
0.592198
0.568184
0.573802
0.576105
0.541075
0.612221
0.565841
0.46081
0.52338
0.602549
0.608633
0.662352
0.622837
0.554948
0.575032
0.516108
0.585908
0.609694
0.495582
0.529381
0.602292
0.504725
0.482517
0.569638
0.481892
0.481458
0.578419
0.532263
0.491608
0.525264
0.549786
0.635436
0.644742
0.526602
0.578098
0.50586
0.473583
0.618182
0.592105
0.530404
0.578782
0.630278
0.539614
0.599038
0.554436
0.670282
0.538865
0.544373
0.499642
0.505143
0.573039
0.686653
0.508408
0.566783
0.600531
0.565116
0.539542
0.558285
0.604871
0.620779
0.646541
0.47391
0.61183
0.542678
0.559441
0.542062
0.499495
0.542367
0.551841
0.537417
0.644961
0.543938
0.471794
0.529617
0.483088
0.602558
0.57032
0.507664
0.540861
0.595523
0.599019
0.546987
0.574829
0.558851
0.535335
0.59829
0.610235
0.522789
0.473703
0.490133
0.521607
0.585341
0.53625
0.555638
0.585003
0.537817
0.558304
0.512641
0.530816
0.6135
0.455273
0.487804
0.527114
0.548984
0.515109
0.61418
0.609038
0.516571
0.598767
0.512428
0.566926
0.576116
0.508054
0.52353
0.630462
0.542516
0.506679
0.506048
0.5473
0.666974
0.575382
0.580179
0.455926
0.583759
0.584556
0.548022
0.560293
0.59071
0.555143
0.569879
0.485797
0.456974
0.546288
0.599251
0.569354
0.532771
0.403253
0.621746
0.481688
0.551834
0.482785
0.54563
0.570748
0.567379
0.440072
0.58582
0.516583
0.537734
0.516626
0.588534
0.53918
0.549392
0.57297
0.630073
0.568886
0.600291
0.541037
0.585053
0.498868
0.535058
0.600051
0.571111
0.518855
0.52231
0.574767
0.564658
0.51388
0.521448
0.505998
0.585316
0.494815
0.542026
0.526577
0.554751
0.607207
0.51723
0.516021
0.544459
0.573995
0.506292
0.614734
0.518725
0.467966
0.502496
0.555494
0.553146
0.537639
0.536831
0.57312
0.537865
0.499951
0.509686
0.562373
0.616494
0.580156
0.513173
0.535333
0.62627
0.519998
0.594419
0.53368
0.574506
0.626831
0.53767
0.508798
0.612222
0.61552
0.578795
0.58397
0.482045
0.546919
0.55927
0.510696
0.55588
0.587145
0.500505
0.563256
0.591433
0.624837
0.513343
0.517159
0.446674
0.529546
0.47993
0.545288
0.610493
0.532622
0.561054
0.589549
0.562623
0.577143
0.500543
0.465127
0.538724
0.634063
0.611865
0.495274
0.501486
0.52162
0.489863
0.542005
0.493594
0.60305
0.57399
0.452187
0.498015
0.580727
0.547651
0.520867
0.482728
0.63808
0.574453
0.552311
0.570363
0.540759
0.597758
0.478018
0.599008
0.465146
0.61676
0.62886
0.573787
0.607218
0.539799
0.473137
0.581391
0.551415
0.539572
0.537988
0.674636
0.634262
0.570268
0.484159
0.519366
0.604022
0.525432
0.524318
0.527126
0.550598
0.564493
0.549173
0.526149
0.572184
0.585403
0.582453
0.593418
0.562999
0.538355
0.515926
0.464315
0.673793
0.576181
0.577267
0.614507
0.564035
0.539988
0.509271
0.503905
0.575758
0.505078
0.541604
0.617511
0.491946
0.52139
0.499357
0.541926
0.575613
0.58034
0.476079
0.595604
0.557308
0.540217
0.543866
0.507556
0.59219
0.421586
0.555859
0.592348
0.5634
0.619208
0.593878
0.466191
0.712506
0.49263
0.542574
0.567661
0.509864
0.648876
0.585138
0.605928
0.51201
0.532082
0.604476
0.56054
0.518777
0.625164
0.52283
0.499047
0.57524
0.458013
0.583252
0.449893
0.447873
0.537352
0.488003
0.593501
0.487684
0.54826
0.432346
0.417893
0.529033
0.603566
0.526601
0.525958
0.608611
0.559496
0.521855
0.52659
0.55437
0.551109
0.61412
0.565878
0.571872
0.489422
0.448974
0.560671
0.582377
0.543796
0.562088
0.518842
0.596744
0.541823
0.550639
0.563534
0.583661
0.616773
0.609284
0.516053
0.546722
0.500475
0.575386
0.447222
0.580556
0.548665
0.436146
0.589629
0.54763
0.577808
0.511089
0.503351
0.559659
0.599981
0.502698
0.513725
0.535973
0.528707
0.497635
0.580425
0.566309
0.533577
0.54711
0.573861
0.496853
0.548335
0.590503
0.534921
0.527265
0.532959
0.55352
0.587905
0.650346
0.486977
0.452988
0.580909
0.540955
0.51618
0.612662
0.560501
0.582102
0.592776
0.590507
0.561939
0.620321
0.60197
0.64257
0.547287
0.468464
0.53706
0.565473
0.606087
0.587665
0.533673
0.617988
0.517817
0.534385
0.553022
0.548483
0.585017
0.432728
0.520648
0.605893
0.629327
0.59305
0.553328
0.467717
0.584817
0.583237
0.571722
0.406633
0.609921
0.618794
0.613936
0.520701
0.590587
0.562961
0.655914
0.517879
0.531574
0.572712
0.549804
0.573175
0.488494
0.551516
0.4966
0.525991
0.53915
0.573608
0.586789
0.513528
0.595203
0.550583
0.59639
0.551509
0.506435
0.563404
0.555717
0.5282
0.580405
0.556886
0.63149
0.524167
0.646301
0.541738
0.641095
0.486362
0.48766
0.500398
0.590598
0.482185
0.498678
0.541786
0.565242
0.520847
0.629111
0.577068
0.500087
0.459949
0.562812
0.549784
0.505953
0.599938
0.55834
0.602457
0.524433
0.51104
0.59125
0.54125
0.619883
0.560778
0.602863
0.550871
0.533154
0.462231
0.667548
0.564737
0.564728
0.564178
0.547528
0.554397
0.542772
0.590479
0.517219
0.555846
0.59056
0.609393
0.578553
0.488999
0.520553
0.580488
0.426369
0.566854
0.511795
0.523603
0.583249
0.515582
0.541486
0.600565
0.659339
0.54893
0.538021
0.454498
0.636123
0.534394
0.622298
0.587962
0.424435
0.538476
0.489282
0.494799
0.537553
0.596299
0.549655
0.512077
0.498007
0.533533
0.596676
0.514445
0.56789
0.521496
0.512201
0.691858
0.515354
0.581611
0.490152
0.471507
0.522827
0.559425
0.559834
0.576477
0.500711
0.521098
0.579972
0.52041
0.610239
0.50052
0.555014
0.543736
0.561836
0.578536
0.588218
0.4531
0.516376
0.59619
0.577646
0.567999
0.50938
0.496866
0.565222
0.566841
0.579455
0.522387
0.513344
0.587187
0.54675
0.483848
0.559161
0.559311
0.463399
0.580986
0.351434
0.614164
0.595539
0.573574
0.486597
0.550406
0.644546
0.536047
0.523471
0.515302
0.499633
0.637827
0.57065
0.517565
0.568028
0.522247
0.457153
0.548806
0.547973
0.584266
0.5587
0.615407
0.549068
0.514019
0.610679
0.582464
0.534609
0.612618
0.478229
0.573176
0.590397
0.478756
0.510462
0.492897
0.547153
0.555265
0.541607
0.568219
0.57625
0.49868
0.50825
0.586315
0.489102
0.52917
0.564175
0.498489
0.498079
0.543474
0.501978
0.546804
0.611381
0.590102
0.551927
0.464573
0.509125
0.569703
0.5666
0.562708
0.534976
0.533871
0.483872
0.582232
0.549645
0.600877
0.493169
0.598052
0.56248
0.58387
0.541559
0.591853
0.576971
0.627048
0.587176
0.516702
0.510112
0.592455
0.579651
0.512494
0.526999
0.549691
0.57253
0.56091
0.595355
0.523516
0.494951
0.615385
0.581867
0.578472
0.608547
0.61104
0.554395
0.498939
0.582544
0.528053
0.552439
0.491549
0.554217
0.386919
0.549747
0.484131
0.474797
0.592221
0.507267
0.541928
0.568761
0.530115
0.579098
0.589438
0.478708
0.52879
0.496692
0.525515
0.588502
0.556508
0.609742
0.524859
0.521904
0.540566
0.48507
0.559711
0.577358
0.580234
0.525481
0.585071
0.522683
0.583907
0.525251
0.561729
0.477882
0.456591
0.622622
0.589763
0.587953
0.595968
0.598883
0.619082
0.556145
0.558401
0.546892
0.566742
0.586898
0.534882
0.478793
0.59794
0.579522
0.536909
0.581943
0.524991
0.599673
0.548589
0.4798
0.519762
0.521092
0.5301
0.573182
0.545452
0.590238
0.524745
0.507749
0.583581
0.578159
0.648197
0.509996
0.593046
0.514761
0.602941
0.581353
0.434803
0.449087
0.573719
0.624398
0.582227
0.52678
0.595411
0.553715
0.639622
0.499312
0.413482
0.492082
0.58463
0.434653
0.482336
0.57825
0.444791
0.478201
0.519818
0.516881
0.558006
0.587748
0.559894
0.565694
0.530063
0.620223
0.490551
0.451538
0.625833
0.599996
0.623892
0.600697
0.564185
0.56244
0.613542
0.545675
0.510394
0.68687
0.571699
0.472212
0.57084
0.653859
0.591803
0.497488
0.47602
0.515146
0.440434
0.520926
0.6307
0.535945
0.481586
0.618458
0.519257
0.626685
0.577615
0.494338
0.520375
0.591619
0.512427
0.509242
0.547006
0.611751
0.57832
0.55583
0.526599
0.57288
0.487718
0.50792
0.536864
0.545186
0.456529
0.446269
0.529484
0.56461
0.53882
0.620804
0.506319
0.584309
0.515849
0.488391
0.54465
0.61283
0.576621
0.611353
0.539792
0.512786
0.517035
0.470296
0.694992
0.586046
0.620669
0.565795
0.57173
0.553344
0.533778
0.526355
0.540629
0.591303
0.562436
0.565981
0.570622
0.545266
0.516557
0.550144
0.559982
0.590212
0.59586
0.57678
0.577502
0.569143
0.541427
0.566053
0.533866
0.651213
0.506708
0.583338
0.567133
0.494175
0.566061
0.626086
0.548178
0.579978
0.564967
0.606795
0.612058
0.457228
0.46893
0.503642
0.635697
0.60357
0.639435
0.536613
0.508458
0.628052
0.528667
0.573898
0.535318
0.498649
0.491573
0.542942
0.543565
0.5793
0.569593
0.585633
0.545693
0.557236
0.477347
0.507416
0.539898
0.561542
0.51249
0.52709
0.514935
0.593017
0.493686
0.518204
0.579695
0.49806
0.581712
0.531455
0.604852
0.536168
0.543834
0.564423
0.582354
0.601057
0.649371
0.617817
0.528453
0.686199
0.498981
0.507548
0.551414
0.514738
0.593669
0.449115
0.628103
0.532959
0.545942
0.616305
0.544985
0.54743
0.55556
0.560275
0.513869
0.501769
0.572798
0.53967
0.536838
0.605105
0.552714
0.605567
0.497525
0.530205
0.554141
0.583124
0.535929
0.624049
0.597858
0.502756
0.590647
0.503544
0.563779
0.5298
0.531505
0.560501
0.516534
0.498099
0.599996
0.457718
0.612903
0.4758
0.57656
0.516415
0.519918
0.523975
0.657774
0.486978
0.63015
0.561722
0.547746
0.580244
0.557336
0.530739
0.61795
0.554706
0.634748
0.519801
0.620782
0.570439
0.580305
0.677993
0.615595
0.583149
0.489016
0.503619
0.499637
0.566534
0.57338
0.649917
0.567146
0.447075
0.561136
0.480788
0.557366
0.524249
0.50976
0.527085
0.542095
0.561435
0.484916
0.520333
0.504801
0.509591
0.574651
0.542958
0.428799
0.52203
0.52748
0.53483
0.508413
0.564101
0.604123
0.553742
0.487302
0.50398
0.457097
0.633128
0.540477
0.606357
0.511663
0.638139
0.497594
0.54909
0.637947
0.472578
0.558565
0.5943
0.675805
0.492066
0.553905
0.479743
0.589291
0.51837
0.530944
0.556307
0.542592
0.533895
0.586728
0.557288
0.660808
0.576075
0.483208
0.564821
0.564818
0.524005
0.611502
0.478538
0.58605
0.616906
0.616985
0.476809
0.505474
0.564799
0.586236
0.596731
0.53299
0.556667
0.56962
0.55346
0.425753
0.559925
0.614506
0.574361
0.499656
0.512149
0.504707
0.539729
0.542771
0.632096
0.480411
0.573572
0.516416
0.582299
0.585486
0.560007
0.560744
0.52879
0.547056
0.616491
0.523088
0.54762
0.507139
0.566812
0.536175
0.520272
0.469042
0.551171
0.549564
0.542979
0.547119
0.64583
0.607807
0.474407
0.541978
0.545702
0.526496
0.624716
0.543923
0.547803
0.621951
0.441921
0.550868
0.582917
0.456746
0.65447
0.575687
0.522768
0.518161
0.565884
0.57875
0.574176
0.451848
0.572586
0.509909
0.424132
0.640487
0.527312
0.652501
0.511338
0.61549
0.599513
0.594164
0.644389
0.563164
0.537652
0.569246
0.579407
0.663074
0.600301
0.528704
0.509799
0.449649
0.580824
0.646216
0.653375
0.493569
0.562907
0.529975
0.572355
0.471615
0.582181
0.533777
0.507844
0.51369
0.554901
0.607389
0.635374
0.638336
0.592415
0.614319
0.542785
0.571776
0.522404
0.609168
0.572114
0.609972
0.600799
0.552875
0.593798
0.645042
0.512373
0.520147
0.504627
0.567857
0.485959
0.535631
0.472229
0.595603
0.534788
0.4788
0.538555
0.595571
0.531678
0.560229
0.557126
0.499326
0.533407
0.504491
0.50752
0.583055
0.530503
0.51636
0.608063
0.484648
0.581867
0.588789
0.621395
0.554113
0.648796
0.58521
0.614249
0.567898
0.496527
0.583312
0.575815
0.535989
0.567679
0.605779
0.570991
0.595238
0.627293
0.518215
0.507791
0.577444
0.525699
0.537339
0.566455
0.567409
0.569324
0.5194
0.462733
0.526488
0.597685
0.5455
0.532258
0.492578
0.574953
0.539387
0.56378
0.601957
0.522161
0.519744
0.452844
0.622852
0.556358
0.589681
0.654193
0.5655
0.586907
0.58075
0.609252
0.525617
0.51666
0.647883
0.546838
0.551708
0.594432
0.585499
0.552743
0.591874
0.548786
0.600619
0.562986
0.525958
0.577324
0.506458
0.513297
0.4783
0.552864
0.528833
0.534469
0.560503
0.537325
0.612362
0.580051
0.531806
0.587105
0.534308
0.508011
0.555958
0.433366
0.571118
0.541676
0.625211
0.559385
0.552056
0.549576
0.630418
0.51707
0.526676
0.598764
0.589167
0.541072
0.576633
0.612775
0.55324
0.550811
0.465959
0.51201
0.639111
0.630302
0.573336
0.505494
0.456173
0.435919
0.60093
0.555605
0.518406
0.554446
0.525514
0.490917
0.600876
0.489487
0.591599
0.553168
0.485264
0.427889
0.661661
0.54515
0.539193
0.50029
0.541209
0.592164
0.609256
0.530867
0.518871
0.562694
0.565372
0.571777
0.591513
0.596971
0.548647
0.552015
0.511314
0.482979
0.559751
0.593648
0.457773
0.559666
0.537462
0.535059
0.572912
0.51842
0.510991
0.623836
0.502666
0.621706
0.521901
0.58222
0.572802
0.637304
0.500559
0.536523
0.649874
0.541994
0.535273
0.443689
0.672198
0.573301
0.577582
0.598964
0.534452
0.587518
0.561467
0.596961
0.535953
0.605002
0.565234
0.547609
0.585418
0.610845
0.557021
0.500421
0.611761
0.545686
0.546366
0.596201
0.485295
0.536882
0.502986
0.44295
0.496185
0.496722
0.565436
0.530753
0.494339
0.567064
0.600172
0.505196
0.579257
0.526872
0.588718
0.591531
0.581345
0.535661
0.609594
0.544806
0.60418
0.475155
0.615625
0.537092
0.448488
0.535039
0.627051
0.556218
0.532368
0.48332
0.616512
0.635591
0.411833
0.404065
0.541976
0.452342
0.606794
0.571292
0.507905
0.606247
0.543293
0.493314
0.563149
0.536029
0.584858
0.56867
0.545795
0.607093
0.521637
0.58078
0.544969
0.579938
0.504337
0.555779
0.484852
0.558833
0.52138
0.585193
0.442112
0.547377
0.622369
0.561925
0.536148
0.63511
0.54644
0.511843
0.456358
0.548761
0.577156
0.52654
0.516893
0.457375
0.533418
0.560933
0.625444
0.495313
0.525469
0.570868
0.603028
0.537229
0.533237
0.555933
0.550879
0.536338
0.583769
0.584031
0.556742
0.555728
0.49022
0.589004
0.499
0.591158
0.545831
0.546419
0.548292
0.514358
0.592922
0.591979
0.618009
0.644302
0.61626
0.564415
0.58694
0.519
0.563537
0.539823
0.528485
0.559599
0.629901
0.582298
0.602327
0.530405
0.511083
0.533419
0.551222
0.450528
0.571245
0.554595
0.568696
0.556361
0.660687
0.523958
0.607315
0.57318
0.502021
0.48574
0.565888
0.644249
0.554139
0.569358
0.556661
0.502851
0.552621
0.628313
0.60249
0.477626
0.514355
0.484966
0.600325
0.626621
0.558824
0.504626
0.560759
0.544376
0.434799
0.539896
0.517762
0.605216
0.525277
0.509232
0.503465
0.53119
0.491905
0.543557
0.574173
0.554332
0.46831
0.566016
0.489193
0.574045
0.542557
0.588181
0.470649
0.529119
0.531585
0.542707
0.562074
0.545366
0.633294
0.582607
0.556895
0.597962
0.505252
0.450299
0.519142
0.561494
0.592428
0.567567
0.590152
0.567481
0.48078
0.46536
0.586134
0.462602
0.496043
0.46984
0.593538
0.50201
0.550877
0.554763
0.593576
0.539429
0.538332
0.579202
0.519703
0.593836
0.556024
0.478505
0.507615
0.603509
0.626206
0.47715
0.537253
0.556633
0.500226
0.528077
0.569248
0.544427
0.589465
0.627026
0.593069
0.481176
0.555128
0.535874
0.655708
0.575396
0.535367
0.531201
0.48566
0.527862
0.482821
0.619778
0.60267
0.536129
0.573011
0.626346
0.60329
0.517669
0.527681
0.606865
0.491303
0.458064
0.467429
0.649078
0.45204
0.584977
0.561096
0.536398
0.524908
0.483999
0.562464
0.505425
0.521512
0.5473
0.577237
0.579935
0.545421
0.535126
0.611741
0.545559
0.588555
0.63328
0.531576
0.6279
0.571824
0.548267
0.616829
0.63385
0.642273
0.51895
0.556489
0.518583
0.598113
0.526852
0.544759
0.601331
0.490255
0.605576
0.548031
0.619527
0.60567
0.579042
0.589541
0.520234
0.561374
0.59448
0.576028
0.51791
0.590256
0.647663
0.583301
0.644
0.549546
0.597572
0.553705
0.555158
0.558159
0.546033
0.446887
0.497945
0.59301
0.500041
0.538669
0.532102
0.523492
0.582322
0.473733
0.495442
0.564142
0.493171
0.519352
0.584905
0.560274
0.563764
0.407338
0.520905
0.585026
0.565912
0.491787
0.613345
0.54885
0.594765
0.529327
0.482065
0.464307
0.61694
0.45759
0.49637
0.609287
0.554255
0.634656
0.583766
0.57457
0.496229
0.636652
0.607082
0.501317
0.600411
0.447253
0.500134
0.482313
0.533946
0.543556
0.550854
0.597955
0.525292
0.514168
0.579354
0.562037
0.543803
0.590819
0.56362
0.594898
0.552958
0.569144
0.577092
0.642131
0.535587
0.488043
0.617322
0.592343
0.534428
0.554622
0.499815
0.488308
0.579175
0.54091
0.555705
0.611986
0.469445
0.540271
0.614831
0.487403
0.553149
0.582797
0.569397
0.495524
0.496545
0.528918
0.551257
0.615074
0.554115
0.625088
0.49008
0.528602
0.553763
0.47722
0.62409
0.497174
0.442648
0.606493
0.56226
0.50588
0.670758
0.554593
0.618727
0.526527
0.531943
0.520288
0.594296
0.450236
0.552193
0.561216
0.570435
0.588027