/*--------------------------------*- C++ -*----------------------------------*\
  =========                 |
  \\      /  F ield         | OpenFOAM: The Open Source CFD Toolbox
   \\    /   O peration     | Website:  https://openfoam.org
    \\  /    A nd           | Version:  7
     \\/     M anipulation  |
\*---------------------------------------------------------------------------*/
FoamFile
{
    version     2.0;
    format      ascii;
    class       volScalarField;
    location    "0";
    object      epss;
}
// * * * * * * * * * * * * * * * * * * * * * * * * * * * * * * * * * * * * * //

dimensions      [0 0 0 0 0 0 0];

internalField   nonuniform List<scalar> 
150000
(
0.397469
0.33145
0.296435
0.340458
0.315481
0.467027
0.390049
0.276055
0.339289
0.454803
0.40522
0.410001
0.329899
0.432639
0.380431
0.439164
0.460201
0.405607
0.424957
0.504991
0.454612
0.372625
0.377597
0.410162
0.397771
0.450961
0.450745
0.353542
0.46919
0.493257
0.43836
0.370432
0.345336
0.455755
0.361678
0.370122
0.419109
0.394954
0.426345
0.502333
0.434711
0.463117
0.35354
0.396378
0.396487
0.397455
0.448264
0.477362
0.451925
0.377734
0.389349
0.39714
0.407574
0.37751
0.356028
0.361504
0.45359
0.456199
0.444738
0.402472
0.392003
0.337805
0.375915
0.368494
0.394876
0.352133
0.40029
0.421759
0.327602
0.393713
0.387092
0.432036
0.459115
0.302743
0.36768
0.427651
0.553846
0.376411
0.448456
0.412579
0.363851
0.381787
0.386033
0.390824
0.429317
0.341047
0.418171
0.430764
0.436507
0.498987
0.425134
0.474715
0.41793
0.372988
0.372447
0.355288
0.400279
0.324216
0.42711
0.393445
0.432766
0.438561
0.386884
0.372402
0.402141
0.412213
0.391177
0.346286
0.470437
0.383378
0.337135
0.363204
0.434766
0.342987
0.323624
0.368165
0.438614
0.333397
0.365145
0.316006
0.30735
0.376467
0.422152
0.442829
0.403092
0.404879
0.432763
0.365517
0.436401
0.437639
0.396152
0.448227
0.272792
0.4858
0.384111
0.479121
0.344509
0.323329
0.326375
0.461911
0.447301
0.366549
0.373698
0.350454
0.467662
0.375222
0.409022
0.370431
0.453183
0.394321
0.405231
0.388479
0.397011
0.401196
0.311426
0.462483
0.371739
0.420474
0.397857
0.484374
0.380188
0.402087
0.300144
0.308719
0.408989
0.363009
0.372999
0.388945
0.441406
0.415651
0.331048
0.447524
0.418592
0.365377
0.371332
0.401544
0.460151
0.368117
0.378159
0.3998
0.370907
0.480067
0.438932
0.435933
0.425751
0.454998
0.366889
0.339948
0.464467
0.442267
0.39216
0.38515
0.445974
0.458357
0.491039
0.381674
0.41937
0.398928
0.416472
0.315044
0.385012
0.331956
0.450258
0.326113
0.368812
0.400393
0.452361
0.409312
0.434719
0.481947
0.386785
0.395522
0.468205
0.367995
0.471648
0.398868
0.506763
0.47964
0.459563
0.327871
0.380892
0.330878
0.437909
0.393627
0.370707
0.412325
0.406228
0.406946
0.421985
0.446718
0.454129
0.41252
0.378279
0.332317
0.376902
0.349726
0.435537
0.412763
0.354858
0.429566
0.421927
0.313255
0.416385
0.375383
0.376099
0
0
0
0
0
0
0
0
0
0
0.420858
0.403721
0.453872
0.448542
0.445384
0.412712
0.465268
0.420998
0.398443
0.379069
0.333095
0.413397
0.395345
0.320307
0.426506
0.426941
0.395609
0.387632
0.358524
0.362499
0.435042
0.40036
0.417253
0.457508
0.346811
0.413467
0.436411
0.359483
0.399957
0.286056
0.30901
0.328538
0.446422
0.346606
0.416108
0.401267
0.385971
0.362833
0.333039
0.369813
0.451335
0.470968
0.472578
0.36292
0.407618
0.329285
0.377521
0.352979
0.419074
0.342967
0.421301
0.438659
0.456882
0.375663
0.494227
0.355468
0.317669
0.387704
0.340983
0.395646
0.392907
0.41594
0.395514
0.460308
0.414683
0.418582
0.387682
0.508156
0.322741
0.407772
0.410699
0.423933
0.417311
0.401388
0.43496
0.379774
0.364894
0.372221
0.400986
0.506805
0.412048
0.449449
0.422513
0.425355
0.351727
0.37551
0.34259
0.438555
0.430257
0.502813
0.36806
0.339858
0.466241
0.390788
0.277403
0.334308
0.38301
0.437184
0.419601
0.340624
0.420032
0.33542
0.247377
0.307259
0.33802
0.492384
0.3846
0.397282
0.529085
0.351241
0.428903
0.323633
0.351641
0.465824
0.409606
0.343983
0.372818
0.356077
0.407104
0.408415
0.398387
0.330543
0.354497
0.469329
0.299194
0.359663
0.350061
0.325007
0.407169
0.378261
0.449766
0.41374
0.33425
0.394752
0.411313
0.359046
0.430532
0.437711
0.370371
0.339041
0.398941
0.412518
0.472613
0.423021
0.3499
0.459228
0.432944
0.44279
0.344901
0.288807
0.36385
0.421359
0.344792
0.363092
0.524104
0.330184
0.458513
0.408427
0.399784
0.437647
0.38881
0.330558
0.401861
0.505921
0.412693
0.49674
0.413654
0.331616
0.422087
0.316922
0.494458
0.357994
0.359669
0.545928
0.297749
0.377639
0.355404
0.495378
0.391315
0.358268
0.277882
0.408659
0.322113
0.384214
0.405743
0.371132
0.470858
0.435475
0.328102
0.440042
0.440682
0.383366
0.342858
0.368164
0.395024
0.383362
0.288657
0.408999
0.365829
0.406612
0.425807
0.398175
0.395021
0.364446
0.421836
0.328232
0.335813
0.470779
0.464278
0.332503
0.439887
0.346107
0.364143
0.399636
0.347633
0.430327
0.411189
0.374352
0.422232
0.423723
0.40953
0.479572
0.367965
0.349103
0.387298
0.346963
0.452332
0.427661
0.462384
0.404251
0.477703
0.308797
0.326036
0.353835
0.366572
0.469706
0.430851
0.433112
0.393571
0.349721
0.377944
0.343404
0.373521
0.357153
0.408811
0.405065
0.465348
0.382114
0.399907
0.413733
0.427636
0.344583
0.340993
0.353602
0.38458
0.366563
0.397797
0.407036
0.445039
0.373503
0.336057
0.407711
0.467119
0.420724
0.332159
0.422595
0.336092
0.382889
0.367756
0.458422
0.446776
0.403558
0.311554
0.458283
0.231645
0.338382
0.466753
0.350561
0.331617
0.452446
0.345647
0.384206
0.439931
0.376697
0.370934
0.31873
0.416421
0.402832
0.340365
0.357943
0.345196
0.396806
0.375279
0.331736
0.458092
0.495116
0.306325
0.476132
0.410139
0.348744
0.357386
0.39504
0.367362
0.363489
0.329986
0.395939
0.350062
0.414432
0.421299
0.410887
0.367705
0.407911
0.455543
0.470168
0.366417
0.325061
0.340551
0.312752
0.413645
0.389358
0.393877
0.371174
0.377002
0.391754
0.418469
0.426858
0.442947
0.366587
0.408994
0.442151
0.414034
0.429489
0.342147
0.395156
0.410701
0.391713
0.269232
0.396383
0.465842
0.464024
0.456205
0.359662
0.325967
0.361798
0.516108
0.393196
0.475974
0.415547
0.359411
0.434933
0.476027
0.410526
0.327637
0.478693
0.470448
0.448186
0.32909
0.393335
0.409582
0.371275
0.377694
0.358413
0.340788
0.416458
0.395211
0.328279
0.331864
0.363091
0.351891
0.363763
0.390474
0.343717
0.414458
0.437632
0.341353
0.437301
0.477343
0.476559
0.388454
0.342279
0.364802
0.380527
0.382844
0.372421
0.499217
0.430842
0.392502
0.393397
0.428874
0.383265
0.398991
0.432961
0.371425
0.34324
0.361371
0.391281
0.375597
0.462271
0.499092
0.43676
0.386338
0.428414
0.357713
0.474114
0.40916
0.371305
0.4724
0.313605
0.438769
0.344178
0.386915
0.402922
0.370725
0.36164
0.355022
0.451125
0.417057
0.369761
0.332783
0.383979
0.37547
0.406701
0.417882
0.325294
0.424498
0.440514
0.317435
0.353246
0.490935
0.444532
0.481358
0.427841
0.409167
0.358401
0.382432
0.480279
0.440702
0.427215
0.426099
0.313398
0.492954
0.40221
0.359905
0.347999
0.446166
0.430298
0.435527
0.444284
0.460798
0.433528
0.439986
0.461564
0.448
0.3954
0.399543
0.370592
0.364549
0.418557
0.366509
0.354731
0.343082
0.365973
0.459407
0.463717
0.326251
0.366841
0.523314
0.359829
0.339599
0.4006
0.479458
0.304903
0.417833
0.454018
0.406986
0.408673
0.337592
0.466538
0.397159
0.445602
0.391767
0.457312
0.347455
0.48871
0.322461
0.391636
0.410662
0.304893
0.458387
0.380632
0
0
0
0
0
0
0
0
0
0
0.363819
0.382097
0.376662
0.525022
0.298326
0.358353
0.39916
0.484315
0.430279
0.493155
0.395867
0.425999
0.498823
0.304868
0.353645
0.27396
0.400702
0.427127
0.421886
0.333314
0.384976
0.38481
0.467572
0.431299
0.378824
0.373516
0.342739
0.487473
0.313295
0.472726
0.349727
0.447633
0.366974
0.406205
0.403626
0.405883
0.395983
0.399886
0.483271
0.388317
0.344926
0.481088
0.442687
0.357327
0.34339
0.445824
0.44018
0.382513
0.408313
0.384254
0.366458
0.403868
0.340075
0.422454
0.370776
0.376222
0.346979
0.415679
0.387332
0.412094
0.369306
0.410996
0.319605
0.451134
0.368862
0.382883
0.421468
0.450485
0.35176
0.420444
0.345961
0.441826
0.37345
0.40739
0.482859
0.407286
0.439963
0.503725
0.425113
0.424326
0.496555
0.452885
0.329818
0.417726
0.399709
0.418989
0.527011
0.372265
0.333986
0.34838
0.435812
0.345275
0.295808
0.437163
0.419905
0.372581
0.37713
0.416206
0.383235
0.507301
0.42189
0.462554
0.393548
0.319995
0.406888
0.382999
0.374957
0.447277
0.428064
0.434755
0.360904
0.42525
0.307515
0.389633
0.402067
0.384271
0.440513
0.418016
0.340608
0.394453
0.320803
0.388372
0.304643
0.448506
0.405613
0.404095
0.467693
0.367183
0.401207
0.406086
0.386373
0.421508
0.359504
0.463758
0.466254
0.386769
0.332504
0.422395
0.334788
0.435496
0.354597
0.452607
0.405134
0.390283
0.43965
0.317785
0.423616
0.463405
0.386595
0.405814
0.376356
0.35948
0.441839
0.291109
0.398931
0.386999
0.394583
0.353375
0.339151
0.429054
0.463233
0.300389
0.39538
0.36926
0.450883
0.423218
0.377294
0.363996
0.479298
0.333784
0.352243
0.367878
0.400282
0.358301
0.42828
0.445988
0.461572
0.513755
0.404186
0.381975
0.385975
0.438719
0.469529
0.283985
0.462284
0.419943
0.3818
0.400231
0.364864
0.447416
0.389406
0.351759
0.426549
0.447521
0.402099
0.357546
0.357626
0.333963
0.425654
0.447902
0.45195
0.360452
0.415083
0.403338
0.424224
0.406671
0.398301
0.45951
0.348473
0.384515
0.409791
0.378943
0.365511
0.353014
0.433075
0.450038
0.418092
0.450237
0.283855
0.385231
0.401455
0.281195
0.385676
0.347893
0.353577
0.44821
0.348593
0.39595
0.339576
0.404549
0.431201
0.448398
0.382087
0.401992
0.453709
0.431554
0.440611
0.382086
0.420499
0.483712
0.397001
0.443215
0.342762
0.472076
0.408674
0.398531
0.446413
0.365335
0.524921
0.406617
0.36851
0.377774
0.377476
0.419226
0.43104
0.428413
0.356375
0.439207
0.409364
0.399137
0.413625
0.353372
0.471333
0.398696
0.340359
0.482744
0.381481
0.385617
0.46611
0.385476
0.40081
0.433466
0.483374
0.374818
0.386386
0.353402
0.391498
0.410426
0.454748
0.352285
0.457957
0.404218
0.539218
0.406441
0.453264
0.384622
0.492421
0.4543
0.450259
0.431302
0.39558
0.435984
0.373503
0.436093
0.385406
0.446044
0.490413
0.397831
0.386512
0.464335
0.513875
0.385292
0.374838
0.432419
0.440607
0.460078
0.350602
0.276477
0.451028
0.367764
0.512155
0.43108
0.461482
0.456543
0.370817
0.446507
0.372015
0.562207
0.364474
0.363061
0.519513
0.41633
0.417387
0.397155
0.497195
0.403861
0.428323
0.457028
0.370136
0.410117
0.366371
0.42346
0.338562
0.480528
0.343825
0.409345
0.399772
0.418163
0.420132
0.333674
0.435018
0.417111
0.424175
0.293556
0.427426
0.332323
0.311316
0.370931
0.224926
0.396269
0.396478
0.405802
0.350273
0.45581
0.407369
0.448264
0.335014
0.441313
0.367695
0.410058
0.321471
0.490365
0.383671
0.389459
0.429193
0.339094
0.313215
0.395797
0.331065
0.396521
0.342375
0.383278
0.384245
0.405822
0.332886
0.417959
0.425398
0.459676
0.411913
0.499066
0.339815
0.473651
0.38736
0.328602
0.352039
0.497781
0.378133
0.408505
0.400919
0.477017
0.436897
0.269296
0.419347
0.346228
0.342345
0.338064
0.355882
0.376734
0.394429
0.420745
0.419583
0.377281
0.340245
0.397617
0.378803
0.369167
0.45409
0.424279
0.426455
0.379916
0.457892
0.385341
0.540523
0.457748
0.513451
0.373899
0.380444
0.425497
0.459558
0.370021
0.369183
0.359169
0.4824
0.466781
0.32583
0.45338
0.416179
0.422172
0.334249
0.446317
0.420271
0.418693
0.40445
0.464408
0.501942
0.517349
0.386236
0.426851
0.353357
0.362842
0.444112
0.363838
0.413433
0.368802
0.384142
0.448204
0.33825
0.379291
0.497746
0.339782
0.444935
0.399563
0.336605
0.437443
0.408177
0.346901
0.41238
0.41816
0.329106
0.3368
0.402199
0.36941
0.412275
0.403814
0.316481
0.391441
0.425632
0.377511
0.414848
0.357014
0.456642
0.35246
0.375338
0.412468
0.359541
0.365111
0.331703
0.372148
0.431364
0.36451
0.443872
0.408967
0.440388
0.327012
0.39201
0.429553
0.482915
0.367971
0.456487
0.417752
0
0
0
0
0
0
0
0
0
0
0.302851
0.478798
0.360235
0.340328
0.461516
0.429905
0.421321
0.393983
0.448208
0.390118
0.38102
0.421869
0.304286
0.326271
0.424948
0.372126
0.408205
0.4392
0.375453
0.400789
0.317591
0.393364
0.427107
0.380118
0.396312
0.345629
0.292502
0.43683
0.380682
0.478271
0.387434
0.420464
0.312771
0.394164
0.357079
0.421171
0.40188
0.338062
0.386188
0.436373
0.448361
0.481734
0.432428
0.409309
0.383147
0.447325
0.433895
0.308547
0.352846
0.436455
0.403114
0.508537
0.40839
0.348394
0.4892
0.41175
0.380253
0.502027
0.456372
0.429646
0.311874
0.421069
0.432009
0.485415
0.327202
0.402812
0.349876
0.330497
0.362903
0.408534
0.395713
0.353863
0.390665
0.453937
0.348333
0.351827
0.30734
0.393224
0.409987
0.483118
0.471585
0.346146
0.448267
0.472521
0.397414
0.433166
0.431747
0.342088
0.47128
0.391068
0.393603
0.309125
0.384113
0.421156
0.512922
0.359387
0.435983
0.388349
0.384761
0.450834
0.357995
0.309628
0.357881
0.358108
0.432854
0.371688
0.380101
0.442725
0.35409
0.363333
0.397481
0.370556
0.401211
0.339644
0.362107
0.439199
0.465614
0.37132
0.361702
0.446722
0.407616
0.418911
0.395931
0.467412
0.432038
0.398337
0.338583
0.428663
0.41431
0.385509
0.38348
0.45469
0.378257
0.316873
0.409321
0.427625
0.380035
0.34777
0.418871
0.360152
0.44567
0.362344
0.36623
0.320425
0.393162
0.361365
0.398161
0.386165
0.464382
0.336329
0.327795
0.449515
0.331484
0.305793
0.274918
0.382871
0.467492
0.335325
0.416146
0.372858
0.425583
0.365763
0.385183
0.361585
0.395656
0.3971
0.443459
0.372452
0.345595
0.279339
0.392321
0.411896
0.479013
0.41317
0.373709
0.354467
0.436387
0.496532
0.360957
0.367856
0.453844
0.401074
0.419186
0.345751
0.46171
0.403992
0.517185
0.419639
0.447742
0.413174
0.409906
0.411044
0.341422
0.431192
0.316359
0.465154
0.387567
0.357425
0.408567
0.481223
0.371118
0.357011
0.407764
0.404741
0.35758
0.411545
0.408655
0.346835
0.339297
0.328645
0.340714
0.302449
0.399868
0.402523
0.345744
0.393576
0.484836
0.401266
0.386664
0.452443
0.347169
0.421341
0.428394
0.41072
0.41589
0.431971
0.281291
0.425186
0.250885
0.430905
0.36975
0.400537
0.447873
0.437673
0.417576
0.427921
0.301391
0.477344
0.360731
0.466979
0.386743
0.33131
0.376114
0.421791
0.429411
0.402402
0.428614
0.368272
0.405892
0.409637
0.438246
0.318812
0.441559
0.350039
0.35198
0.329401
0.485544
0.425927
0.335898
0.397071
0.351828
0.388329
0.373671
0.424444
0.328019
0.427396
0.392684
0.33315
0.419301
0.438778
0.391053
0.466238
0.456111
0.45972
0.341568
0.398736
0.404857
0.475136
0.386023
0.415834
0.408104
0.379493
0.358549
0.404669
0.339119
0.463226
0.363723
0.318247
0.306685
0.342885
0.421834
0.435753
0.398721
0.538324
0.402855
0.318123
0.416876
0.482593
0.394409
0.42985
0.376657
0.433358
0.39517
0.411104
0.434329
0.44877
0.32666
0.320393
0.415329
0.468956
0.460042
0.384225
0.353404
0.380716
0.408025
0.446375
0.405651
0.393545
0.362963
0.399463
0.390055
0.446509
0.529313
0.429967
0.343684
0.490511
0.44052
0.354085
0.389854
0.421651
0.326973
0.3793
0.301174
0.284338
0.42746
0.430373
0.402759
0.436454
0.421082
0.376101
0.378202
0.403867
0.433014
0.426124
0.348883
0.305868
0.353433
0.37485
0.375802
0.316781
0.442804
0.453846
0.320161
0.477382
0.407011
0.412823
0.409004
0.414245
0.359336
0.385199
0.340776
0.37684
0.418948
0.406804
0.431774
0.337948
0.38876
0.392351
0.328039
0.449131
0.357886
0.424903
0.387511
0.473279
0.369611
0.419337
0.347613
0.326363
0.442214
0.407103
0.460392
0.408485
0.452785
0.427583
0.462858
0.392959
0.40444
0.403296
0.392205
0.360533
0.465286
0.567904
0.428987
0.471313
0.339498
0.472542
0.477787
0.311873
0.350379
0.407456
0.450431
0.395242
0.386574
0.45469
0.415091
0.277314
0.383538
0.409671
0.344092
0.431427
0.421553
0.409709
0.329198
0.37211
0.402329
0.380535
0.355654
0.329862
0.42791
0.375765
0.397419
0.385114
0.394438
0.363567
0.355029
0.476883
0.285988
0.390257
0.420618
0.387926
0.459805
0.340253
0.426811
0.442163
0.38597
0.385987
0.411048
0.437692
0.398579
0.388875
0.41743
0.401586
0.346967
0.378886
0.29394
0.407638
0.434254
0.417256
0.442415
0.372651
0.338854
0.374439
0.363066
0.431052
0.438675
0.42998
0.377148
0.378555
0.351761
0.30209
0.374205
0.326758
0.428775
0.457474
0.4498
0.283562
0.483528
0.425458
0.388968
0.372532
0.417207
0.291543
0.365568
0.430773
0.482254
0.359723
0.411169
0.455667
0.42763
0.405498
0.503454
0.319486
0.344558
0.433397
0.47841
0.44127
0.340528
0.450708
0.45035
0.405263
0
0
0
0
0
0
0
0
0
0
0.321267
0.359214
0.390193
0.411795
0.456754
0.401048
0.438706
0.422286
0.419453
0.44126
0.470624
0.36178
0.427701
0.341687
0.392951
0.288027
0.391035
0.315692
0.425684
0.381302
0.313464
0.457226
0.382079
0.375144
0.341041
0.410954
0.496444
0.342039
0.388485
0.323988
0.33021
0.423321
0.398849
0.338067
0.393496
0.40908
0.418654
0.352754
0.450607
0.383183
0.44192
0.477312
0.412935
0.363512
0.449641
0.408208
0.315159
0.440175
0.339967
0.370725
0.37321
0.366705
0.444094
0.371223
0.412268
0.425593
0.381818
0.43536
0.443934
0.385142
0.370801
0.342132
0.399309
0.34155
0.400166
0.403245
0.392293
0.419305
0.423537
0.303672
0.482265
0.418888
0.409294
0.456046
0.33999
0.453767
0.369692
0.46117
0.311611
0.410118
0.409343
0.367588
0.370382
0.306318
0.426538
0.376421
0.370655
0.493688
0.455817
0.382392
0.455328
0.356712
0.39836
0.435369
0.439083
0.397952
0.383908
0.37767
0.400946
0.447344
0.359317
0.38084
0.320716
0.443496
0.468875
0.468021
0.328962
0.447989
0.346915
0.303533
0.44584
0.436823
0.404541
0.430805
0.339899
0.439079
0.325644
0.380901
0.464291
0.370289
0.448606
0.301137
0.478658
0.364244
0.356279
0.402538
0.387478
0.454371
0.350935
0.386582
0.387831
0.349062
0.377591
0.399548
0.476955
0.442887
0.403222
0.390844
0.432828
0.342318
0.511717
0.298855
0.262534
0.456611
0.434506
0.40129
0.437792
0.361874
0.297187
0.411665
0.349158
0.405801
0.409425
0.348045
0.414968
0.374044
0.440677
0.421508
0.450128
0.423048
0.357905
0.414567
0.328522
0.487254
0.379599
0.397953
0.427683
0.381407
0.318928
0.463483
0.496621
0.436854
0.457509
0.401701
0.40517
0.39423
0.379082
0.465825
0.45239
0.38233
0.378199
0.403654
0.378457
0.450346
0.358163
0.460345
0.470623
0.379517
0.383568
0.459696
0.384912
0.362821
0.37351
0.414737
0.422332
0.325267
0.333127
0.313858
0.38622
0.354092
0.42625
0.423489
0.497876
0.364462
0.341474
0.370683
0.359859
0.442485
0.343526
0.379683
0.47314
0.355557
0.479785
0.478005
0.488115
0.408419
0.533603
0.416203
0.338242
0.395231
0.439369
0.420135
0.337041
0.400866
0.348283
0.357666
0.451381
0.474737
0.406269
0.412378
0.386166
0.400813
0.426302
0.402287
0.362056
0.355697
0.427339
0.308272
0.429769
0.429443
0.508458
0.348725
0.544058
0.396436
0.347055
0.471447
0.430483
0.305757
0.306717
0.318477
0.379278
0.452408
0.451337
0.424075
0.470522
0.371139
0.464557
0.408028
0.510299
0.447058
0.446332
0.412009
0.461992
0.427419
0.37714
0.340953
0.345738
0.469424
0.356368
0.376986
0.451399
0.448224
0.409294
0.476224
0.407878
0.454264
0.47619
0.486817
0.382111
0.290158
0.389503
0.357428
0.475831
0.40168
0.327985
0.342472
0.425179
0.3772
0.430878
0.457096
0.423571
0.445175
0.446923
0.460726
0.443031
0.466548
0.412693
0.381451
0.406217
0.367555
0.32135
0.467891
0.398734
0.336153
0.421796
0.331735
0.397188
0.367709
0.321475
0.38229
0.399123
0.389798
0.34423
0.397025
0.383097
0.366636
0.475682
0.395494
0.356103
0.447647
0.376855
0.458363
0.470492
0.499355
0.317774
0.331143
0.394129
0.405481
0.36823
0.43096
0.408463
0.456953
0.475306
0.422471
0.38148
0.497607
0.487015
0.337254
0.430477
0.353039
0.453533
0.390575
0.437953
0.366156
0.32083
0.502786
0.413979
0.469342
0.360751
0.356162
0.45404
0.355709
0.389723
0.394952
0.456576
0.311007
0.368966
0.322145
0.362791
0.379575
0.46597
0.504844
0.401235
0.396685
0.425925
0.379156
0.436273
0.425737
0.341651
0.447414
0.38342
0.423114
0.398043
0.408208
0.369318
0.449442
0.350853
0.443466
0.328956
0.40819
0.299476
0.403541
0.397439
0.315515
0.324166
0.501915
0.420327
0.426568
0.501197
0.361826
0.432551
0.47936
0.43973
0.425161
0.322531
0.282377
0.363132
0.452738
0.371349
0.397271
0.406691
0.420031
0.385784
0.388276
0.373134
0.39449
0.393757
0.358066
0.389235
0.328335
0.435045
0.43845
0.300643
0.377299
0.400916
0.406382
0.388361
0.432403
0.393745
0.424237
0.312362
0.488795
0.506512
0.389328
0.47214
0.41621
0.392324
0.521033
0.304573
0.463458
0.413487
0.395798
0.417095
0.441994
0.394548
0.442031
0.358574
0.351396
0.402675
0.4499
0.379556
0.424238
0.439942
0.48309
0.452792
0.418
0.409822
0.383551
0.476649
0.418778
0.3808
0.417345
0.433456
0.378673
0.458934
0.390102
0.323197
0.339658
0.313704
0.426216
0.442942
0.357869
0.40456
0.404095
0.41125
0.383702
0.454283
0.384331
0.263061
0.405959
0.381278
0.442751
0.39882
0.377262
0.453049
0.356275
0.423216
0.353717
0.465983
0.369036
0.359309
0.376133
0.341681
0.497465
0.29029
0.349616
0.459063
0.435186
0.479796
0.328482
0
0
0
0
0
0
0
0
0
0
0.357308
0.415731
0.364351
0.409823
0.423792
0.372435
0.408932
0.533608
0.367796
0.363935
0.369928
0.324769
0.327081
0.355048
0.449472
0.390641
0.382101
0.339295
0.464743
0.41862
0.457801
0.364736
0.416303
0.383936
0.417968
0.472107
0.358213
0.394451
0.403676
0.436408
0.295576
0.406974
0.354592
0.390801
0.339573
0.441443
0.39929
0.41186
0.371648
0.436266
0.426649
0.408945
0.390648
0.437133
0.435399
0.38973
0.439191
0.41182
0.399908
0.42179
0.454912
0.296652
0.386304
0.329612
0.342417
0.462719
0.475078
0.393269
0.496465
0.470039
0.371843
0.337296
0.448618
0.401772
0.434039
0.460503
0.355328
0.387614
0.504239
0.3751
0.400107
0.330468
0.394585
0.430119
0.376986
0.363652
0.364383
0.412089
0.400416
0.404322
0.378991
0.292467
0.410336
0.40306
0.365961
0.433045
0.463199
0.371491
0.489497
0.354617
0.367763
0.357318
0.36803
0.451296
0.501437
0.444402
0.319974
0.377495
0.341637
0.473732
0.312527
0.362278
0.492656
0.403653
0.396376
0.313485
0.381866
0.41067
0.384314
0.382054
0.44956
0.418925
0.366965
0.504294
0.362958
0.407288
0.371005
0.434269
0.341346
0.347461
0.41013
0.381487
0.409171
0.368489
0.386246
0.360503
0.43865
0.461185
0.406076
0.552511
0.415045
0.499414
0.431637
0.310235
0.413528
0.406113
0.435496
0.468046
0.441144
0.411321
0.415617
0.329567
0.364209
0.391671
0.334301
0.330339
0.421836
0.339529
0.352151
0.340348
0.443217
0.310277
0.409709
0.385079
0.427959
0.371691
0.421332
0.495901
0.472406
0.425662
0.4346
0.478443
0.375734
0.411815
0.467738
0.34559
0.41973
0.346861
0.399413
0.389297
0.510663
0.469456
0.294458
0.327976
0.446881
0.414811
0.374976
0.341317
0.437722
0.417461
0.38745
0.367956
0.324206
0.336645
0.351811
0.413498
0.337821
0.412953
0.490696
0.417454
0.371452
0.479558
0.337714
0.318004
0.420827
0.476432
0.399179
0.392641
0.391617
0.436376
0.373184
0.330193
0.406273
0.352118
0.354822
0.339842
0.421015
0.441187
0.443457
0.481723
0.324083
0.439754
0.405405
0.377316
0.436296
0.447932
0.399926
0.525679
0.408464
0.346
0.401295
0.346465
0.408265
0.370099
0.339084
0.327312
0.482644
0.460523
0.370097
0.423641
0.390324
0.436028
0.410566
0.388166
0.457543
0.337147
0.405562
0.367403
0.482219
0.366186
0.40209
0.353646
0.383256
0.389229
0.430091
0.462471
0.383481
0.43106
0.378186
0.406121
0.302222
0.348662
0.343857
0.384748
0.460305
0.449547
0.32917
0.382191
0.424691
0.35626
0.379803
0.418992
0.350344
0.404772
0.421493
0.446554
0.344911
0.415432
0.354675
0.433688
0.403529
0.325768
0.422244
0.398093
0.412167
0.467704
0.45545
0.382635
0.303229
0.342163
0.451267
0.360292
0.398742
0.416161
0.412638
0.363293
0.327323
0.42693
0.415885
0.37486
0.349364
0.397255
0.350377
0.418638
0.365616
0.429284
0.367724
0.427171
0.352521
0.449643
0.441215
0.340252
0.395953
0.390001
0.384435
0.408565
0.381965
0.37008
0.30202
0.441544
0.315363
0.35873
0.408495
0.412509
0.411367
0.447022
0.352229
0.340746
0.445483
0.266838
0.418119
0.411264
0.287618
0.376582
0.428496
0.429138
0.403022
0.414334
0.39288
0.413453
0.411994
0.359279
0.44345
0.394682
0.431209
0.436557
0.459129
0.492133
0.457025
0.389087
0.429401
0.406487
0.469259
0.438666
0.298172
0.368158
0.435495
0.314195
0.392566
0.442468
0.400078
0.400192
0.417601
0.386981
0.444132
0.446956
0.434045
0.390945
0.475999
0.356291
0.453838
0.319148
0.399977
0.392683
0.354024
0.362307
0.292341
0.382147
0.443527
0.335349
0.447765
0.368967
0.407682
0.435266
0.376003
0.451194
0.421878
0.391598
0.405144
0.388912
0.438637
0.362766
0.420779
0.362779
0.358496
0.402992
0.374424
0.483803
0.343108
0.437735
0.386969
0.392988
0.429041
0.414594
0.410686
0.439548
0.31333
0.41771
0.400411
0.412989
0.322117
0.390751
0.402633
0.408577
0.371714
0.424197
0.474263
0.379972
0.281226
0.375913
0.446892
0.449197
0.326027
0.360895
0.40577
0.477943
0.350701
0.422145
0.369033
0.361998
0.405393
0.398241
0.366478
0.267777
0.416299
0.365744
0.409296
0.43349
0.439821
0.422601
0.382837
0.390367
0.471469
0.371754
0.412473
0.494644
0.44121
0.360592
0.497324
0.388575
0.402548
0.227929
0.388485
0.409509
0.410421
0.429004
0.48112
0.369831
0.379946
0.434093
0.415865
0.302641
0.428816
0.440264
0.369032
0.452398
0.326246
0.417824
0.351653
0.325899
0.411765
0.405034
0.295849
0.417955
0.393731
0.418428
0.420529
0.407701
0.508678
0.465017
0.391954
0.414382
0.463301
0.405762
0.469015
0.46662
0.329723
0.426507
0.520343
0.527946
0.414453
0.408109
0.48994
0.347997
0.475488
0.463583
0.390454
0.353083
0.457782
0.439954
0
0
0
0
0
0
0
0
0
0
0.375338
0.418191
0.385794
0.494374
0.341631
0.453006
0.339411
0.374443
0.452498
0.323436
0.337866
0.375199
0.421244
0.495829
0.419839
0.340408
0.399941
0.415911
0.318468
0.351
0.442605
0.43343
0.378743
0.49406
0.43063
0.384683
0.450119
0.339495
0.344615
0.345188
0.446716
0.49976
0.414483
0.429337
0.41449
0.362961
0.32626
0.404935
0.522537
0.38926
0.359822
0.379864
0.429889
0.319572
0.359082
0.389384
0.368314
0.445639
0.368446
0.414072
0.387396
0.370623
0.358776
0.331322
0.434179
0.404859
0.407741
0.419971
0.395695
0.432994
0.362319
0.448485
0.393058
0.407105
0.535095
0.349934
0.376946
0.429518
0.324759
0.414146
0.362698
0.352736
0.405032
0.381925
0.495486
0.419434
0.440452
0.399418
0.334605
0.409737
0.393724
0.381207
0.42173
0.401618
0.439209
0.407033
0.440765
0.30215
0.408278
0.359876
0.356996
0.375311
0.378709
0.370756
0.406432
0.361554
0.364268
0.34031
0.400216
0.421583
0.433155
0.385732
0.423191
0.407885
0.43434
0.393843
0.422196
0.447422
0.379452
0.481561
0.331213
0.389038
0.379577
0.462661
0.371026
0.360351
0.375518
0.398019
0.315235
0.393282
0.459969
0.473901
0.441877
0.429294
0.455414
0.530259
0.484141
0.420124
0.427735
0.393572
0.553121
0.382194
0.36103
0.451401
0.461747
0.485535
0.444558
0.414824
0.398444
0.437471
0.506554
0.408457
0.435847
0.392278
0.423623
0.425834
0.430951
0.412441
0.424925
0.327616
0.418666
0.481723
0.409665
0.345823
0.365936
0.456371
0.43877
0.293906
0.413414
0.238929
0.359299
0.371293
0.416794
0.471576
0.405273
0.483335
0.399829
0.461623
0.407353
0.509233
0.329153
0.369907
0.325385
0.407386
0.306484
0.411017
0.44369
0.334923
0.416057
0.440252
0.37524
0.400783
0.383762
0.394147
0.441168
0.568113
0.430218
0.240232
0.466784
0.405985
0.431885
0.458142
0.437107
0.442478
0.389931
0.447238
0.393257
0.250145
0.393886
0.424441
0.398558
0.485182
0.5459
0.408284
0.455283
0.472849
0.443166
0.426219
0.326268
0.435729
0.394301
0.465109
0.348598
0.414309
0.346849
0.421617
0.433965
0.436299
0.375041
0.453601
0.399101
0.367346
0.404539
0.364
0.357471
0.402679
0.374837
0.41461
0.446917
0.402019
0.384375
0.495466
0.427972
0.529694
0.378628
0.481409
0.362282
0.39276
0.382707
0.316791
0.408166
0.436931
0.357832
0.348034
0.434891
0.388815
0.459544
0.449573
0.436574
0.431033
0.451071
0.46334
0.429938
0.398617
0.379752
0.329504
0.410903
0.366698
0.39663
0.315931
0.399539
0.457848
0.398863
0.351781
0.334941
0.316852
0.42873
0.362957
0.437105
0.286685
0.399861
0.344477
0.398789
0.400639
0.371609
0.408064
0.417035
0.306836
0.360992
0.385128
0.348141
0.354946
0.375458
0.407075
0.410626
0.403913
0.379031
0.467344
0.404626
0.420459
0.451958
0.442551
0.390325
0.424661
0.463293
0.438858
0.392516
0.39899
0.412902
0.419303
0.374252
0.333395
0.394481
0.442943
0.424004
0.399244
0.365946
0.405075
0.385336
0.375822
0.354166
0.406718
0.395302
0.431068
0.36549
0.351857
0.454627
0.393195
0.429057
0.375369
0.403048
0.443833
0.36403
0.384246
0.420391
0.437228
0.399312
0.517014
0.470853
0.375271
0.307686
0.384928
0.433347
0.354641
0.42373
0.373746
0.419947
0.446385
0.349623
0.458556
0.354369
0.472901
0.398198
0.496258
0.421917
0.471942
0.404415
0.351423
0.407796
0.371646
0.361418
0.39035
0.334531
0.470331
0.403484
0.43872
0.437683
0.334899
0.380649
0.40048
0.390889
0.488389
0.438034
0.392204
0.395425
0.381155
0.430359
0.419449
0.387639
0.489124
0.414253
0.414127
0.402851
0.358165
0.338624
0.504369
0.477072
0.418877
0.359025
0.370056
0.313387
0.436076
0.477514
0.49564
0.359301
0.302106
0.374136
0.363742
0.42721
0.345679
0.423761
0.41689
0.424917
0.472393
0.39883
0.398687
0.319438
0.37378
0.421993
0.367672
0.475123
0.344827
0.407129
0.35054
0.462867
0.280765
0.401904
0.36134
0.516972
0.378098
0.32659
0.404916
0.300481
0.35909
0.460909
0.364186
0.430643
0.467051
0.326818
0.359346
0.442479
0.371528
0.372514
0.403577
0.418973
0.506058
0.548493
0.394901
0.443066
0.375515
0.424163
0.379046
0.484283
0.442713
0.347831
0.415403
0.316555
0.448598
0.379768
0.364284
0.469937
0.401592
0.40523
0.492073
0.469006
0.457534
0.458844
0.357953
0.276609
0.383758
0.426894
0.399342
0.461004
0.398795
0.386148
0.430982
0.401974
0.370954
0.427234
0.387752
0.4399
0.411433
0.382377
0.361328
0.391259
0.447738
0.447767
0.446267
0.394538
0.413848
0.425758
0.397015
0.418228
0.416145
0.382449
0.446511
0.416321
0.43073
0.350527
0.441812
0.38401
0.435925
0.468883
0.379346
0.426697
0.43893
0.417056
0.379952
0.470427
0.349298
0
0
0
0
0
0
0
0
0
0
0.448312
0.390264
0.342958
0.436039
0.398595
0.40647
0.375407
0.443605
0.377771
0.42915
0.355226
0.423756
0.505574
0.416422
0.40706
0.343858
0.344535
0.283762
0.237069
0.385893
0.420257
0.35577
0.336152
0.245031
0.358081
0.486954
0.421553
0.44411
0.471744
0.437603
0.379509
0.395126
0.388398
0.467188
0.40605
0.491274
0.37616
0.452876
0.401323
0.42896
0.450104
0.36686
0.433814
0.356296
0.418199
0.415517
0.384049
0.465059
0.365218
0.446509
0.416168
0.441424
0.362757
0.467558
0.41155
0.412049
0.36511
0.33153
0.405993
0.422328
0.420942
0.343773
0.302336
0.275583
0.446741
0.395139
0.29665
0.397942
0.395279
0.345623
0.307185
0.394371
0.447165
0.375747
0.386669
0.315717
0.390865
0.482705
0.445717
0.412041
0.521408
0.317941
0.459267
0.375159
0.325797
0.383451
0.443998
0.393537
0.434495
0.420298
0.43285
0.483336
0.46096