/*--------------------------------*- C++ -*----------------------------------*\
  =========                 |
  \\      /  F ield         | OpenFOAM: The Open Source CFD Toolbox
   \\    /   O peration     | Website:  https://openfoam.org
    \\  /    A nd           | Version:  7
     \\/     M anipulation  |
\*---------------------------------------------------------------------------*/
FoamFile
{
    version     2.0;
    format      ascii;
    class       volScalarField;
    location    "0";
    object      epss;
}
// * * * * * * * * * * * * * * * * * * * * * * * * * * * * * * * * * * * * * //

dimensions      [0 0 0 0 0 0 0];

internalField   nonuniform List<scalar> 
150000
(
0.633714
0.510343
0.602068
0.571775
0.634805
0.638263
0.591904
0.604099
0.622895
0.678279
0.479289
0.711312
0.640358
0.58571
0.612191
0.580124
0.608211
0.618914
0.552964
0.650903
0.565404
0.569777
0.574623
0.637126
0.679473
0.641797
0.713393
0.566166
0.599607
0.567645
0.564331
0.587972
0.697534
0.636159
0.607461
0.551294
0.618146
0.597568
0.626064
0.572372
0.634887
0.520993
0.655408
0.538673
0.56777
0.651089
0.613824
0.59985
0.655884
0.738405
0.568536
0.536656
0.758028
0.608625
0.569231
0.561206
0.592918
0.592044
0.602967
0.533545
0.535821
0.54805
0.597606
0.61049
0.619854
0.527378
0.618845
0.593372
0.669443
0.643129
0.602255
0.535499
0.544027
0.584886
0.615882
0.566756
0.518049
0.545876
0.618247
0.623539
0.55908
0.622944
0.598167
0.605722
0.609081
0.649882
0.596615
0.657586
0.532127
0.583867
0.634704
0.546987
0.577928
0.58719
0.651183
0.640638
0.640777
0.655367
0.573035
0.551558
0.589396
0.593966
0.526035
0.51362
0.582668
0.664227
0.558313
0.621039
0.594586
0.549224
0.600011
0.657234
0.537238
0.534559
0.659634
0.607654
0.598242
0.584928
0.635913
0.576064
0.557638
0.548703
0.590336
0.53996
0.585675
0.574817
0.6545
0.62656
0.594163
0.621254
0.514651
0.55701
0.517151
0.648261
0.54298
0.57403
0.587966
0.674219
0.647256
0.55348
0.646575
0.655066
0.464886
0.624418
0.571663
0.51846
0.599699
0.672091
0.593604
0.676159
0.556575
0.696912
0.615153
0.715377
0.668567
0.619354
0.575327
0.661771
0.639454
0.591118
0.584484
0.658682
0.594333
0.492531
0.591527
0.618735
0.544248
0.586081
0.751165
0.578917
0.611522
0.556859
0.542034
0.604732
0.605423
0.646022
0.62024
0.636859
0.589014
0.592581
0.562417
0.570508
0.629854
0.578121
0.609893
0.643617
0.641083
0.68033
0.6354
0.633908
0.611551
0.697921
0.618036
0.642455
0.54954
0.635241
0.482642
0.599882
0.609406
0.604238
0.592036
0.601612
0.585462
0.748549
0.569026
0.619317
0.642961
0.652228
0.540408
0.593304
0.565724
0.571175
0.609666
0.62962
0.628506
0.60554
0.579023
0.720436
0.648725
0.668773
0.582869
0.589988
0.632809
0.577714
0.583962
0.58245
0.594841
0.60335
0.66322
0.618667
0.688275
0.529995
0.672086
0.653631
0.655252
0.612075
0.516431
0.577597
0.601582
0.608005
0.602178
0.567233
0.599847
0.637377
0.631541
0
0
0
0
0
0
0
0
0
0
0
0.638435
0.588799
0.665374
0.59925
0.632589
0.656669
0.597768
0.61855
0.652189
0.615101
0.642807
0.610832
0.618208
0.526464
0.498479
0.611101
0.60914
0.572484
0.598727
0.722301
0.672227
0.583044
0.656882
0.596597
0.541307
0.572871
0.611091
0.628755
0.635259
0.606769
0.595509
0.619951
0.602407
0.589062
0.641667
0.596657
0.579924
0.55356
0.584383
0.597798
0.668897
0.577616
0.640771
0.618082
0.558825
0.564584
0.644615
0.625233
0.638185
0.724768
0.597085
0.511305
0.613179
0.698128
0.62672
0.642772
0.633905
0.643385
0.575421
0.572104
0.61046
0.672073
0.617161
0.604861
0.540831
0.621548
0.575411
0.587305
0.65049
0.53765
0.604412
0.649727
0.571193
0.563684
0.567051
0.534323
0.57733
0.686561
0.559221
0.592061
0.544333
0.627022
0.574459
0.652927
0.62258
0.623069
0.611715
0.672581
0.613998
0.526571
0.628253
0.590401
0.571123
0.605488
0.666001
0.579458
0.671981
0.613399
0.59606
0.628931
0.647651
0.564849
0.515679
0.556288
0.56738
0.6404
0.597284
0.723683
0.540982
0.686469
0.602298
0.568464
0.524721
0.683763
0.482622
0.596817
0.555756
0.549256
0.624494
0.528653
0.644173
0.550095
0.625999
0.693504
0.619
0.627177
0.582523
0.639301
0.541596
0.568129
0.61768
0.632334
0.599212
0.562267
0.630388
0.663732
0.634302
0.575112
0.480952
0.553785
0.57812
0.646631
0.607393
0.562667
0.55189
0.641119
0.500817
0.587135
0.650118
0.629949
0.655438
0.666142
0.506373
0.61976
0.591902
0.647125
0.5972
0.608345
0.553385
0.591108
0.630244
0.490768
0.518216
0.630485
0.615328
0.604561
0.538084
0.694845
0.65119
0.65655
0.60615
0.604075
0.581608
0.519463
0.684492
0.54929
0.552235
0.623454
0.500417
0.613695
0.52181
0.597961
0.593047
0.644404
0.601522
0.571538
0.653421
0.577741
0.666263
0.487501
0.636609
0.61289
0.523027
0.557738
0.607153
0.553032
0.683742
0.632901
0.622893
0.520738
0.601786
0.658202
0.670922
0.620819
0.647145
0.700779
0.607803
0.571877
0.569505
0.569467
0.636203
0.544433
0.63921
0.587974
0.651731
0.647332
0.596234
0.65772
0.604362
0.607366
0.631331
0.618046
0.699776
0.618574
0.632961
0.572866
0.670392
0.568329
0.691816
0.592443
0.530461
0.573398
0.597094
0.63562
0.578036
0.612467
0.64031
0.565105
0.678202
0.617808
0.625827
0.525964
0.480002
0.580126
0.586293
0.555482
0.612315
0.641025
0.712961
0.660402
0.544198
0.541908
0.622413
0.570573
0.613247
0.622094
0.458878
0.578201
0.576937
0.683576
0.598638
0.62625
0.646857
0.633218
0.622007
0.555127
0.628569
0.59926
0.595228
0.606362
0.594535
0.634214
0.654122
0.569621
0.626096
0.641901
0.578082
0.634926
0.636248
0.645622
0.609103
0.623692
0.584995
0.657934
0.494644
0.629219
0.53061
0.550711
0.601788
0.640442
0.603562
0.658117
0.489263
0.590511
0.543386
0.611382
0.590726
0.506951
0.668598
0.559096
0.644128
0.578319
0.638788
0.48405
0.59473
0.579677
0.677297
0.637546
0.651328
0.67462
0.667355
0.504713
0.590472
0.552013
0.631483
0.625931
0.645695
0.637501
0.57372
0.537013
0.599008
0.646586
0.644364
0.681806
0.627957
0.647216
0.647982
0.560846
0.471775
0.604518
0.569979
0.592633
0.593009
0.659877
0.602913
0.635558
0.550544
0.654248
0.501588
0.53336
0.612462
0.556434
0.553884
0.62861
0.656568
0.606643
0.564975
0.675087
0.612904
0.536799
0.558906
0.583514
0.644904
0.502117
0.530375
0.634909
0.574402
0.498618
0.536811
0.554868
0.67116
0.690864
0.64552
0.635722
0.62871
0.61944
0.696547
0.589504
0.632135
0.566114
0.594873
0.592645
0.602924
0.65314
0.584033
0.633814
0.590424
0.578229
0.613872
0.618412
0.626468
0.631457
0.723724
0.625116
0.558836
0.537086
0.540946
0.648896
0.550241
0.614052
0.631789
0.525914
0.577847
0.664645
0.611999
0.569185
0.629863
0.51549
0.57224
0.534232
0.6716
0.608935
0.56796
0.554739
0.600648
0.51315
0.664787
0.638938
0.724127
0.644952
0.550488
0.458943
0.567037
0.618757
0.563815
0.657672
0.636689
0.573362
0.649055
0.583428
0.638475
0.615918
0.627961
0.575404
0.611753
0.518312
0.590481
0.535796
0.659832
0.614446
0.618314
0.709097
0.641099
0.626455
0.624963
0.619841
0.558014
0.523019
0.601685
0.484639
0.683583
0.786285
0.670274
0.526764
0.474444
0.583437
0.513649
0.638354
0.656511
0.532409
0.640524
0.542425
0.591852
0.646229
0.66556
0.524267
0.585546
0.568319
0.607756
0.601556
0.5875
0.66155
0.574979
0.615005
0.594683
0.543564
0.523181
0.602998
0.525914
0.597528
0.563824
0.544582
0.60527
0.575972
0.546855
0.617575
0.640627
0.513296
0.599316
0.627833
0.567018
0.549954
0.490883
0.504837
0.684774
0.552132
0.654398
0.638152
0.650324
0
0
0
0
0
0
0
0
0
0
0.574229
0.493983
0.68417
0.626909
0.576825
0.609989
0.514333
0.750903
0.519066
0.528599
0.608196
0.600863
0.565231
0.484154
0.611405
0.565968
0.631036
0.562427
0.613211
0.625658
0.622288
0.657061
0.631635
0.5571
0.584659
0.615188
0.553145
0.594002
0.596093
0.561038
0.544851
0.53995
0.525057
0.557556
0.578615
0.473471
0.608491
0.590147
0.584632
0.617371
0.600846
0.650277
0.567146
0.594918
0.516056
0.627643
0.563407
0.639187
0.45276
0.545227
0.667418
0.630864
0.58007
0.587518
0.614898
0.546336
0.58268
0.628285
0.616231
0.669454
0.647746
0.558994
0.58603
0.626644
0.571494
0.542458
0.547672
0.577832
0.557178
0.640234
0.541356
0.578698
0.663581
0.612937
0.613084
0.671746
0.627684
0.602819
0.672703
0.705859
0.538883
0.66486
0.512107
0.58133
0.556293
0.557986
0.616825
0.580214
0.709877
0.534284
0.638886
0.597633
0.647573
0.605492
0.543225
0.677641
0.660426
0.556606
0.609955
0.618237
0.660489
0.526101
0.600369
0.618127
0.605023
0.591057
0.662414
0.576697
0.556807
0.599035
0.498835
0.559427
0.525494
0.577018
0.606894
0.642858
0.589166
0.547918
0.685207
0.63826
0.627808
0.614985
0.535642
0.618013
0.628559
0.576178
0.580778
0.515581
0.551221
0.624309
0.613161
0.535487
0.608244
0.620251
0.657831
0.554029
0.662657
0.589363
0.593262
0.622808
0.507139
0.546452
0.582115
0.647969
0.603757
0.651214
0.554145
0.554049
0.613474
0.571758
0.637898
0.59319
0.688756
0.588369
0.604306
0.562394
0.589059
0.654716
0.615617
0.689431
0.636299
0.580329
0.658781
0.684572
0.559848
0.610331
0.499761
0.606625
0.534237
0.695572
0.594668
0.61335
0.67593
0.611482
0.655885
0.633976
0.63821
0.519551
0.614224
0.573422
0.587929
0.646413
0.617327
0.663903
0.52952
0.640842
0.632425
0.595579
0.561273
0.679792
0.599311
0.58022
0.671081
0.631734
0.495055
0.577796
0.678301
0.638522
0.553654
0.575309
0.555222
0.544532
0.656233
0.567617
0.529939
0.559796
0.655596
0.722111
0.605526
0.592306
0.593225
0.631923
0.682546
0.586517
0.614037
0.670657
0.560512
0.547042
0.594616
0.633605
0.592524
0.502313
0.660582
0.652342
0.611692
0.50931
0.584588
0.626765
0.622581
0.631057
0.547571
0.564231
0.60647
0.570161
0.656005
0.621691
0.558228
0.603596
0.664117
0.626131
0.547641
0.591117
0.612137
0.675022
0.630376
0.537475
0.653094
0.727517
0.608139
0.634522
0.603669
0.545604
0.524625
0.604136
0.550724
0.570796
0.6135
0.617049
0.636505
0.601708
0.579689
0.583169
0.57245
0.644996
0.607563
0.587286
0.645863
0.618196
0.688602
0.589172
0.562216
0.662672
0.598135
0.550292
0.585672
0.56468
0.519137
0.528733
0.556833
0.49559
0.592245
0.617034
0.612125
0.615212
0.627827
0.604502
0.514726
0.59544
0.627337
0.678623
0.557864
0.649396
0.514973
0.635555
0.627333
0.663338
0.612156
0.597174
0.670273
0.544047
0.680394
0.530765
0.67799
0.607315
0.525055
0.560555
0.545927
0.559445
0.555164
0.542275
0.673831
0.614662
0.64933
0.602868
0.542238
0.564103
0.566782
0.475783
0.701887
0.60327
0.574569
0.599437
0.615357
0.554315
0.656054
0.607847
0.553556
0.588667
0.531139
0.647443
0.576923
0.617707
0.601145
0.63204
0.616464
0.563871
0.691746
0.573836
0.58063
0.589218
0.528674
0.617996
0.580302
0.62805
0.610088
0.553439
0.672769
0.588119
0.616336
0.645688
0.542591
0.644331
0.644614
0.509275
0.664302
0.636062
0.629497
0.601529
0.586973
0.591172
0.634058
0.65692
0.698318
0.559496
0.580143
0.628843
0.517277
0.537751
0.647863
0.655354
0.55602
0.654044
0.590603
0.594303
0.543941
0.575626
0.587063
0.501386
0.549866
0.479986
0.579775
0.615649
0.665003
0.635962
0.573317
0.659765
0.604848
0.691623
0.585905
0.584516
0.53104
0.644937
0.576461
0.599766
0.579243
0.471396
0.634167
0.721265
0.599314
0.721169
0.632991
0.656847
0.68803
0.512457
0.64273
0.581721
0.594976
0.570046
0.595612
0.583653
0.637
0.678459
0.56916
0.59697
0.647962
0.621297
0.643223
0.651021
0.600814
0.546445
0.673656
0.675086
0.544941
0.657345
0.627225
0.637512
0.640137
0.633869
0.562416
0.514345
0.634201
0.666071
0.631948
0.618651
0.569362
0.619099
0.575397
0.642021
0.588365
0.706029
0.689139
0.621344
0.591667
0.627695
0.663256
0.488233
0.546417
0.625247
0.646465
0.611038
0.644116
0.635924
0.501786
0.641262
0.637297
0.580758
0.672898
0.581938
0.614145
0.538766
0.630807
0.484338
0.591133
0.599473
0.61551
0.628824
0.539807
0.60817
0.583464
0.67863
0.611361
0.602507
0.469282
0.621688
0.572139
0.580137
0.606403
0.638152
0.495322
0.57582
0.650991
0.641021
0.516512
0.643869
0.600892
0.627655
0.613375
0.618339
0.596474
0.615455
0
0
0
0
0
0
0
0
0
0
0.657203
0.565126
0.644503
0.653285
0.551862
0.631831
0.58064
0.511132
0.640177
0.530233
0.652154
0.592591
0.582201
0.564181
0.538391
0.673226
0.607282
0.677737
0.601648
0.664594
0.635974
0.548176
0.595901
0.582406
0.553313
0.59127
0.620815
0.636099
0.626889
0.568547
0.576644
0.608505
0.604748
0.568375
0.500655
0.553129
0.615872
0.604339
0.516561
0.506332
0.509519
0.668352
0.658208
0.656413
0.548434
0.719988
0.590903
0.632401
0.550968
0.603191
0.628825
0.56969
0.655259
0.58469
0.574531
0.554372
0.587525
0.583231
0.578951
0.598256
0.593166
0.676244
0.643127
0.603161
0.680785
0.580641
0.611321
0.649965
0.578192
0.603676
0.490367
0.652767
0.577685
0.628509
0.560161
0.62561
0.615819
0.656551
0.649085
0.669562
0.719005
0.587752
0.68409
0.595549
0.647808
0.609534
0.552317
0.552966
0.606881
0.614014
0.575614
0.595105
0.636169
0.64803
0.684802
0.642646
0.582148
0.636449
0.638865
0.64306
0.545158
0.569917
0.638905
0.582504
0.608089
0.580335
0.601704
0.637115
0.625943
0.513851
0.63526
0.674989
0.612154
0.601763
0.58248
0.659247
0.540733
0.628045
0.532601
0.677776
0.535499
0.61751
0.503859
0.646181
0.649391
0.618909
0.700051
0.474196
0.563985
0.628419
0.61624
0.678846
0.619231
0.604052
0.611135
0.560715
0.552514
0.59768
0.568298
0.698126
0.582944
0.566471
0.602974
0.692881
0.636027
0.600884
0.558887
0.590127
0.554569
0.698817
0.509674
0.604845
0.614567
0.562905
0.516579
0.603582
0.624842
0.636411
0.682043
0.604216
0.649375
0.546045
0.629377
0.510689
0.601844
0.656204
0.645534
0.622064
0.571045
0.65034
0.526967
0.50925
0.587416
0.592758
0.606111
0.597506
0.611079
0.678233
0.540246
0.624206
0.615326
0.639372
0.625709
0.563666
0.602169
0.573835
0.633842
0.638463
0.61906
0.553015
0.614367
0.68455
0.672475
0.586319
0.552506
0.604476
0.684359
0.656523
0.60108
0.611932
0.507137
0.638076
0.685662
0.598534
0.587373
0.645546
0.531586
0.61807
0.633022
0.559129
0.70279
0.574899
0.604261
0.586168
0.606073
0.606253
0.554673
0.681535
0.476601
0.573974
0.544741
0.530888
0.633368
0.611893
0.554329
0.597576
0.651561
0.573726
0.60538
0.631405
0.596935
0.650332
0.552726
0.57776
0.740548
0.531332
0.616922
0.613102
0.668801
0.686427
0.560683
0.666098
0.585141
0.545786
0.589079
0.580222
0.657042
0.644362
0.606583
0.696082
0.652387
0.614056
0.567578
0.68711
0.606909
0.573188
0.598588
0.714693
0.575525
0.646743
0.599337
0.593106
0.590159
0.574978
0.549135
0.659049
0.661805
0.727226
0.560742
0.671265
0.591184
0.596185
0.609143
0.580307
0.581564
0.606503
0.631209
0.639744
0.625751
0.508781
0.614023
0.65023
0.564558
0.633962
0.658522
0.653602
0.599263
0.586907
0.514081
0.649249
0.517194
0.587794
0.610886
0.693206
0.616638
0.621132
0.616448
0.594057
0.564018
0.576537
0.587111
0.629737
0.644115
0.545624
0.720359
0.544336
0.629904
0.666469
0.532741
0.527594
0.650868
0.606738
0.565093
0.688311
0.609446
0.657057
0.711775
0.532336
0.585764
0.587574
0.581877
0.700236
0.571914
0.561383
0.585353
0.650274
0.518732
0.575487
0.646521
0.569653
0.547261
0.65073
0.605153
0.642015
0.561936
0.527849
0.646013
0.534857
0.541952
0.581693
0.643979
0.641199
0.620128
0.629745
0.577574
0.576493
0.618603
0.562696
0.549158
0.615001
0.568065
0.569286
0.589519
0.648876
0.671102
0.634854
0.673682
0.619442
0.578904
0.6067
0.623428
0.605216
0.664143
0.62604
0.626153
0.572311
0.608748
0.691371
0.72965
0.631892
0.646631
0.636963
0.613526
0.589199
0.564576
0.612298
0.580882
0.622675
0.525889
0.615285
0.562117
0.623449
0.701907
0.613951
0.56093
0.634262
0.60894
0.592215
0.630989
0.552643
0.617428
0.529714
0.640549
0.631858
0.627955
0.631945
0.576159
0.566206
0.600739
0.573581
0.644355
0.600305
0.548669
0.550895
0.677125
0.639938
0.645094
0.652715
0.593852
0.57698
0.571784
0.545152
0.532005
0.609242
0.560766
0.649277
0.556605
0.551022
0.614646
0.662884
0.538533
0.716215
0.666891
0.657481
0.59215
0.651801
0.465618
0.573693
0.587633
0.597633
0.610459
0.565519
0.589782
0.660397
0.614279
0.626478
0.570848
0.601976
0.671708
0.646818
0.663406
0.542485
0.57796
0.485814
0.580456
0.567134
0.642266
0.539824
0.611172
0.697835
0.515804
0.612438
0.573181
0.623001
0.680313
0.563367
0.626179
0.575981
0.546499
0.553763
0.632778
0.562263
0.568917
0.623183
0.572508
0.497859
0.580977
0.511846
0.616559
0.547982
0.541776
0.648668
0.647496
0.586844
0.571882
0.670477
0.637545
0.583893
0.590891
0.593454
0.616471
0.542577
0.617591
0.508727
0.531553
0.615045
0.632741
0.617289
0.606311
0.658265
0.524185
0
0
0
0
0
0
0
0
0
0.604243
0.652241
0.607159
0.583976
0.581047
0.641046
0.518929
0.663368
0.521866
0.626779
0.551102
0.566209
0.508666
0.60297
0.540505
0.597141
0.612675
0.623488
0.577515
0.545118
0.528252
0.50416
0.73682
0.606148
0.577246
0.441647
0.58885
0.546721
0.708878
0.656884
0.568701
0.631172
0.599635
0.560245
0.564956
0.559932
0.579465
0.622005
0.523129
0.558719
0.573417
0.590156
0.707095
0.632652
0.626785
0.571295
0.687631
0.563845
0.634626
0.573713
0.709344
0.588497
0.760373
0.587748
0.613838
0.60105
0.662876
0.529664
0.613797
0.600517
0.657421
0.481832
0.574548
0.594864
0.586606
0.581063
0.647542
0.660092
0.594315
0.661279
0.504609
0.572757
0.619508
0.631144
0.561861
0.675866
0.626251
0.555919
0.559368
0.575105
0.614559
0.574611
0.658443
0.635501
0.661479
0.568066
0.634888
0.621162
0.644426
0.64419
0.668666
0.606635
0.520684
0.57226
0.603607
0.611965
0.63901
0.600237
0.571088
0.489526
0.579574
0.578442
0.596983
0.739049
0.678799
0.56437
0.513721
0.577498
0.602942
0.546295
0.542834
0.666062
0.598553
0.644236
0.593535
0.59021
0.562978
0.506002
0.613121
0.611861
0.550527
0.62897
0.616786
0.614896
0.665761
0.512562
0.543951
0.643554
0.64535
0.597181
0.645845
0.605131
0.573703
0.598855
0.578196
0.662498
0.508899
0.591397
0.643123
0.71378
0.625872
0.625181
0.604453
0.645289
0.554139
0.49876
0.566552
0.565362
0.563116
0.536674
0.56416
0.526788
0.609295
0.568708
0.501312
0.583418
0.4974
0.565423
0.567612
0.585301
0.541599
0.635258
0.606531
0.639071
0.608115
0.627139
0.563029
0.616169
0.515514
0.609094
0.643547
0.727632
0.594087
0.641632
0.493517
0.598581
0.543397
0.62479
0.56882
0.649528
0.583355
0.615581
0.58533
0.615795
0.655799
0.559304
0.596058
0.623383
0.610338
0.595938
0.641553
0.553185
0.682242
0.559338
0.62805
0.58774
0.65571
0.568871
0.614214
0.572568
0.585938
0.593914
0.59279
0.606895
0.669547
0.523773
0.512352
0.576922
0.671345
0.627906
0.690205
0.596746
0.556006
0.605524
0.58382
0.612938
0.671428
0.637408
0.536453
0.582507
0.600215
0.564355
0.603571
0.47817
0.633189
0.671586
0.584868
0.627433
0.525591
0.647493
0.62353
0.596981
0.57327
0.651897
0.620001
0.507649
0.535619
0.578405
0.613136
0.544534
0.593075
0.544324
0.594406
0.613229
0.583079
0.617774
0.613816
0.478872
0.592778
0.597237
0.542145
0.432506
0.547762
0.710319
0.497112
0.532556
0.595516
0.649946
0.604357
0.647349
0.491658
0.475107
0.653961
0.605858
0.677394
0.569597
0.579047
0.55501
0.514762
0.659552
0.585378
0.641123
0.617404
0.649136
0.677446
0.61921
0.604684
0.69677
0.579112
0.540304
0.6039
0.526333
0.616508
0.571729
0.618849
0.695348
0.592522
0.596673
0.612531
0.63861
0.555972
0.551527
0.553692
0.561532
0.542756
0.562753
0.640796
0.585583
0.626775
0.587113
0.60612
0.630725
0.611049
0.600934
0.62498
0.625501
0.582623
0.584262
0.633294
0.621246
0.578687
0.669934
0.528955
0.572475
0.526203
0.585991
0.495698
0.690492
0.693572
0.526919
0.601252
0.592749
0.562225
0.657362
0.608925
0.562682
0.534207
0.574279
0.595051
0.536104
0.634451
0.657713
0.504996
0.615691
0.624651
0.608252
0.608253
0.606006
0.60921
0.52175
0.565016
0.568378
0.547847
0.747213
0.509872
0.644659
0.534081
0.577534
0.615595
0.643595
0.630905
0.576912
0.51309
0.550076
0.647766
0.56197
0.729466
0.596012
0.576967
0.588394
0.522674
0.582784
0.624336
0.565879
0.537271
0.545782
0.6815
0.464053
0.545997
0.625765
0.709945
0.626852
0.551441
0.568799
0.638274
0.627004
0.665821
0.637132
0.607043
0.606343
0.578374
0.661429
0.59774
0.566931
0.691381
0.600143
0.618085
0.565157
0.618651
0.623722
0.582314
0.62815
0.447626
0.657615
0.490006
0.509838
0.693255
0.538311
0.604197
0.5075
0.59632
0.601171
0.655424
0.65448
0.55199
0.601312
0.566906
0.669094
0.597254
0.601671
0.550885
0.637951
0.532918
0.588037
0.561913
0.54311
0.616715
0.586018
0.671908
0.563309
0.494168
0.596292
0.515455
0.613799
0.625598
0.545151
0.578689
0.602722
0.69661
0.532215
0.62891
0.657487
0.617405
0.597826
0.570771
0.695432
0.612333
0.578223
0.584139
0.507265
0.607075
0.648522
0.596689
0.634315
0.653603
0.595922
0.549995
0.567045
0.580263
0.61814
0.587501
0.579279
0.590069
0.619233
0.60071
0.638782
0.527707
0.688766
0.545337
0.634926
0.582317
0.591318
0.554417
0.617666
0.503255
0.635442
0.571843
0.558573
0.594067
0.640254
0.620118
0.578757
0.623224
0.495555
0.601378
0.559651
0.597649
0.609885
0.599347
0.650852
0.53738
0.580392
0.669366
0.583358
0.584634
0.577741
0.586063
0.654296
0.556585
0.571111
0.545262
0
0
0
0
0
0
0
0
0.469456
0.629174
0.638448
0.647461
0.645856
0.668013
0.605477
0.604481
0.689404
0.607186
0.602775
0.64142
0.623163
0.549936
0.641256
0.613887
0.521277
0.607065
0.585965
0.552165
0.551058
0.549759
0.609155
0.570289
0.528764
0.602609
0.603289
0.623075
0.604706
0.586262
0.605649
0.622367
0.652463
0.610333
0.552094
0.658106
0.575914
0.635172
0.626342
0.700643
0.668076
0.528483
0.560498
0.61684
0.61826
0.59619
0.622168
0.584375
0.577334
0.419312
0.695664
0.552131
0.6252
0.634635
0.588777
0.663574
0.499289
0.541087
0.695966
0.600099
0.559401
0.563754
0.570843
0.563697
0.614055
0.624454
0.551055
0.663913
0.556946
0.65153
0.562096
0.535608
0.569283
0.549129
0.68817
0.569183
0.630826
0.564387
0.69691
0.588138
0.56572
0.613539
0.580673
0.695425
0.553196
0.541617
0.644704
0.485817
0.556513
0.642311
0.662397
0.681088
0.575994
0.525044
0.544191
0.580688
0.62032
0.680265
0.593346
0.531756
0.554988
0.628001
0.633894
0.602904
0.612342
0.589136
0.551423
0.593295
0.646828
0.590889
0.532867
0.675904
0.599419
0.544079
0.573242
0.549842
0.616498
0.582416
0.644875
0.547393
0.640665
0.565539
0.58179
0.6273
0.623321
0.642104
0.577973
0.597082
0.626808
0.517764
0.617684
0.566927
0.548084
0.603934
0.640461
0.59115
0.540837
0.657523
0.58361
0.625602
0.644512
0.653407
0.630197
0.639651
0.664478
0.659812
0.625356
0.636631
0.625888
0.626092
0.624827
0.593887
0.595583
0.637524
0.588314
0.667824
0.678631
0.536074
0.492428
0.556434
0.629667
0.601921
0.532749
0.677816
0.650956
0.570936
0.611575
0.545767
0.617016
0.678658
0.668451
0.58806
0.607973
0.621648
0.561662
0.511684
0.533348
0.61061
0.59457
0.625151
0.504076
0.51392
0.557049
0.578979
0.598692
0.661664
0.63162
0.548522
0.642022
0.651879
0.701895
0.59846
0.619322
0.65648
0.660622
0.62224
0.603922
0.737502
0.633865
0.564653
0.52199
0.494232
0.617506
0.6076
0.658639
0.617771
0.606335
0.584738
0.632328
0.599172
0.573369
0.596219
0.547017
0.617235
0.58939
0.581914
0.565927
0.55242
0.519295
0.606553
0.588844
0.684563
0.630556
0.689375
0.654501
0.639531
0.562808
0.529123
0.56754
0.525364
0.587838
0.587442
0.517619
0.63525
0.610789
0.578501
0.626265
0.580349
0.580453
0.623132
0.592638
0.544388
0.460352
0.581263
0.660142
0.645089
0.494636
0.559591
0.594323
0.577608
0.603603
0.660656
0.604481
0.656443
0.643269
0.654596
0.583094
0.583179
0.630667
0.537396
0.596344
0.592805
0.562854
0.599017
0.502559
0.649425
0.694762
0.538901
0.633287
0.672813
0.614969
0.544977
0.596072
0.58303
0.550601
0.491933
0.572932
0.519553
0.573788
0.666516
0.594858
0.614716
0.648977
0.613621
0.610779
0.578069
0.584696
0.611928
0.534781
0.662182
0.60825
0.553267
0.596781
0.596276
0.620312
0.596077
0.632985
0.557282
0.596986
0.66218
0.678266
0.477223
0.561868
0.608767
0.58736
0.584886
0.608894
0.636522
0.586586
0.584454
0.57452
0.65176
0.568526
0.520378
0.635425
0.639802
0.634199
0.552725
0.599699
0.584526
0.675397
0.586513
0.604836
0.601688
0.50623
0.601572
0.553641
0.560082
0.577456
0.639779
0.705172
0.637625
0.612735
0.726253
0.678816
0.600159
0.523341
0.52424
0.570594
0.575368
0.610775
0.62732
0.63252
0.562152
0.561925
0.630001
0.582951
0.597771
0.596825
0.536245
0.627271
0.646595
0.653767
0.580797
0.595239
0.601972
0.542032
0.668069
0.548494
0.57846
0.56559
0.560141
0.550229
0.697999
0.670937
0.520068
0.625772
0.599547
0.590081
0.610201
0.583321
0.659969
0.636051
0.562008
0.575696
0.601055
0.612792
0.529456
0.497988
0.628943
0.600623
0.668115
0.609618
0.573264
0.591039
0.546216
0.55957
0.574429
0.683912
0.563786
0.579381
0.658101
0.599643
0.632281
0.565616
0.619612
0.588785
0.588037
0.645931
0.622421
0.637428
0.60702
0.633374
0.567387
0.625577
0.533861
0.586587
0.616365
0.569622
0.70191
0.599356
0.484274
0.619965
0.548735
0.600137
0.617225
0.626249
0.540468
0.645213
0.59447
0.600974
0.627231
0.546798
0.574213
0.614861
0.632475
0.640824
0.66077
0.582224
0.643577
0.597283
0.575721
0.665087
0.588067
0.610779
0.598503
0.628052
0.546559
0.569022
0.534573
0.550242
0.64538
0.573168
0.566853
0.634671
0.552427
0.564445
0.532698
0.590173
0.543932
0.576422
0.594657
0.577192
0.53831
0.667372
0.570678
0.653817
0.624492
0.576269
0.700189
0.668758
0.652386
0.522414
0.566962
0.553604
0.61459
0.530473
0.568047
0.614495
0.619245
0.646879
0.675228
0.56374
0.57232
0.59762
0.54655
0.560405
0.593772
0.628996
0.556933
0.608014
0.545556
0.60194
0.592977
0.603966
0.694518
0.56223
0.585234
0.480062
0.584869
0.584914
0.595658
0
0
0
0
0
0
0
0
0.610189
0.548963
0.54432
0.522737
0.69108
0.635718
0.554116
0.691014
0.637398
0.575342
0.521919
0.668842
0.607314
0.631022
0.604109
0.560208
0.652084
0.551224
0.580541
0.64268
0.527276
0.66073
0.647983
0.621489
0.612233
0.56376
0.624091
0.61332
0.514585
0.619527
0.562659
0.617036
0.510376
0.547153
0.574704
0.622868
0.595974
0.70472
0.547171
0.602169
0.570191
0.693732
0.582247
0.623288
0.589243
0.544598
0.581021
0.534022
0.606438
0.580971
0.57171
0.638943
0.604861
0.634586
0.514297
0.542204
0.657087
0.606341
0.585563
0.566347
0.625161
0.533029
0.544191
0.638319
0.61405
0.645916
0.552802
0.506888
0.559658
0.605031
0.719255
0.60326
0.695109
0.525991
0.741923
0.656359
0.534748
0.55987
0.547837
0.552657
0.642483
0.597288
0.589228
0.590215
0.483981
0.555528
0.630666
0.536587
0.576155
0.604365
0.64767
0.681622
0.604206
0.563098
0.569295
0.618516
0.572987
0.610719
0.653221
0.619233
0.663525
0.569403
0.619215
0.580447
0.561726
0.614227
0.596857
0.604597
0.600411
0.61775
0.637155
0.688545
0.575742
0.608785
0.579561
0.559904
0.57634
0.551499
0.646634
0.677261
0.664387
0.566384
0.582396
0.525829
0.600682
0.602828
0.589964
0.603903
0.725391
0.565545
0.521355
0.608073
0.638952
0.620986
0.61238
0.675796
0.574874
0.53455
0.58882
0.640677
0.628939
0.614696
0.656547
0.605063
0.505719
0.579692
0.629031
0.617398
0.617469
0.606396
0.57915
0.558662
0.500939
0.660097
0.64418
0.592002
0.60886
0.650774
0.659654
0.660347
0.660368
0.645584
0.526641
0.607763
0.643808
0.575618
0.565078
0.574159
0.648673
0.576827
0.644719
0.546946
0.632161
0.572098
0.612928
0.645929
0.606109
0.645791
0.646026
0.639942
0.565283
0.547433
0.520238
0.639124
0.650383
0.580796
0.64311
0.620201
0.593518
0.652127
0.509575
0.559695
0.547719
0.620379
0.589033
0.641908
0.535111
0.508717
0.675394
0.593452
0.642215
0.532779
0.575026
0.600435
0.614633
0.573427
0.619191
0.623672
0.605387
0.599739
0.650864
0.628053
0.641763
0.646184
0.603024
0.540132
0.699476
0.604245
0.569608
0.615925
0.587403
0.516306
0.57649
0.568747
0.591792
0.512117
0.577334
0.651628
0.468342
0.597382
0.558302
0.647123
0.65893
0.480086
0.634844
0.550215
0.57239
0.62832
0.654736
0.586783
0.617708
0.66749
0.524751
0.52215
0.618454
0.637296
0.639458
0.570022
0.649672
0.645383
0.607697
0.556392
0.607615
0.642963
0.553804
0.533586
0.58955
0.545534
0.633544
0.560699
0.642005
0.60319
0.57305
0.652198
0.626373
0.577882
0.715942
0.61493
0.605634
0.610063
0.572533
0.649066
0.523875
0.649404
0.621347
0.612252
0.582593
0.681054
0.577672
0.499874
0.598851
0.667579
0.707612
0.614836
0.614563
0.642602
0.645587
0.540816
0.617779
0.564318
0.62176
0.503784
0.619404
0.664272
0.483499
0.611532
0.631729
0.595221
0.515472
0.609168
0.579721
0.587622
0.467056
0.638512
0.696049
0.602522
0.604026
0.58935
0.611263
0.594559
0.516882
0.516798
0.518621
0.64245
0.639335
0.598568
0.655716
0.645835
0.633935
0.56843
0.535603
0.57896
0.564674
0.595268
0.632351
0.603791
0.579811
0.61116
0.597088
0.548542
0.56428
0.541754
0.626318
0.572407
0.652587
0.560991
0.514186
0.665459
0.58282
0.631994
0.499993
0.600526
0.502259
0.575177
0.656944
0.630286
0.648604
0.545981
0.62114
0.554866
0.624728
0.560158
0.603073
0.522273
0.635013
0.596244
0.659191
0.544539
0.65166
0.599391
0.584355
0.517001
0.638555
0.517679
0.595365
0.542527
0.600614
0.573147
0.578713
0.575221
0.578562
0.609197
0.583974
0.595513
0.579637
0.521219
0.600761
0.618574
0.52506
0.621656
0.522432
0.604301
0.634441
0.632335
0.566743
0.572655
0.604587
0.663698
0.563361
0.674535
0.605333
0.651826
0.678405
0.620021
0.541251
0.585351
0.569209
0.621257
0.62577
0.59061
0.658216
0.483882
0.596003
0.521443
0.566968
0.624399
0.518063
0.553647
0.588597
0.526838
0.562467
0.523626
0.574981
0.61189
0.56896
0.587452
0.530019
0.576061
0.622704
0.628137
0.604719
0.603081
0.679023
0.596114
0.522021
0.630673
0.563741
0.607346
0.591462
0.609046
0.529948
0.551196
0.634685
0.582052
0.642089
0.57549
0.640945
0.487118
0.58416
0.573561
0.634748
0.628339
0.674047
0.535369
0.583993
0.614906
0.72388
0.59259
0.646362
0.583344
0.6366
0.59301
0.680854
0.727874
0.597079
0.672308
0.578014
0.595197
0.579932
0.551703
0.646815
0.645081
0.733081
0.573408
0.567397
0.626063
0.687851
0.680562
0.650229
0.522719
0.648073
0.703895
0.526208
0.591225
0.654175
0.582591
0.674297
0.65249
0.563827
0.542142
0.638049
0.622913
0.676542
0.571458
0.649217
0.618656
0.598142
0.569587
0.62102
0.595216
0.686748
0.609334
0.574635
0
0
0
0
0
0
0
0.602868
0.516286
0.5374
0.662257
0.620694
0.618091
0.611761
0.512012
0.576225
0.596476
0.611411
0.672242
0.714758
0.598244
0.588164
0.619375
0.55386
0.526664
0.592029
0.527104
0.610262
0.554462
0.547102
0.672869
0.501826
0.672904
0.600712
0.626337
0.570742
0.571981
0.538753
0.592832
0.561022
0.623336
0.49489
0.477391
0.59069
0.591458
0.634579
0.675314
0.619001
0.51588
0.511828
0.597725
0.608645
0.620156
0.626124
0.558086
0.603773
0.610933
0.59665
0.654422
0.624656
0.714589
0.613878
0.561972
0.637159
0.563773
0.621243
0.613419
0.540558
0.614863
0.649133
0.555279
0.656624
0.597584
0.557792
0.575012
0.516453
0.606918
0.562706
0.57094
0.575847
0.600089
0.554664
0.575114
0.593051
0.680909
0.683295
0.586282
0.603255
0.579108
0.635313
0.612583
0.632424
0.60504
0.618971
0.632143
0.610605