/*--------------------------------*- C++ -*----------------------------------*\
  =========                 |
  \\      /  F ield         | OpenFOAM: The Open Source CFD Toolbox
   \\    /   O peration     | Website:  https://openfoam.org
    \\  /    A nd           | Version:  7
     \\/     M anipulation  |
\*---------------------------------------------------------------------------*/
FoamFile
{
    version     2.0;
    format      ascii;
    class       volScalarField;
    location    "0";
    object      epss;
}
// * * * * * * * * * * * * * * * * * * * * * * * * * * * * * * * * * * * * * //

dimensions      [0 0 0 0 0 0 0];

internalField   nonuniform List<scalar> 
196256
(
0.44393
0.443663
0.389613
0.444017
0.356049
0.479604
0.400454
0.459545
0.417853
0.354612
0.420131
0.432979
0.384732
0.461695
0.394189
0.435825
0.287085
0.403177
0.366506
0.340003
0.376389
0.360506
0.360723
0.417888
0.444332
0.389372
0.364985
0.340444
0.41743
0.385695
0.375857
0.296859
0.453797
0.332017
0.390326
0.365488
0.404047
0.476406
0.36074
0.403931
0.445679
0.460409
0.51156
0.426646
0.425597
0.34291
0.293016
0.465001
0.324222
0.382093
0.501867
0.413495
0.364036
0.389987
0.425644
0.41323
0.45819
0.497624
0.368122
0.384106
0.371536
0.343954
0.360924
0.416073
0.362807
0.402144
0.458516
0.489665
0.394433
0.363548
0.311365
0.370142
0.444537
0.367081
0.36973
0.514333
0.393685
0.322095
0.435572
0.40148
0.409074
0.421383
0.370743
0.400422
0.472776
0.362196
0.442684
0.457145
0.358333
0.366061
0.444301
0.388972
0.480949
0.444711
0.379668
0.517116
0.40699
0.356806
0.378097
0.410719
0.342517
0.393067
0.332981
0.371905
0.484358
0.397531
0.304037
0.36755
0.348431
0.461293
0.466698
0.399674
0.398419
0.333292
0.387226
0.370283
0.416278
0.296525
0.403496
0.460794
0.322463
0.369139
0.43279
0.401976
0.332711
0.364336
0.375037
0.405066
0.285953
0.450639
0.489672
0.418639
0.39344
0.412915
0.506275
0.43106
0.362433
0.440516
0.390659
0.390089
0.43336
0.376615
0.334937
0.366747
0.414312
0.508852
0.418251
0.273951
0.484343
0.377064
0.355761
0.497878
0.417987
0.388283
0.458586
0.381827
0.417241
0.418049
0.398621
0.373474
0.419823
0.447593
0.425067
0.27028
0.4115
0.341797
0.467448
0.274024
0.460654
0.426478
0.281387
0.44297
0.366445
0.368418
0.354954
0.429503
0.436946
0.451925
0.386268
0.393398
0.356685
0.38559
0.415179
0.450303
0.49743
0.402852
0.430503
0.446502
0.431868
0.434996
0.463255
0.383626
0.409533
0.393147
0.470346
0.369851
0.395536
0.421846
0.381036
0.401978
0.402888
0.423814
0.419243
0.483868
0.482186
0.364309
0.487867
0.351809
0.424872
0.347847
0.382258
0.461401
0.315274
0.419182
0.426283
0.434524
0.459524
0.394023
0.335349
0.398747
0.349966
0.427513
0.362178
0.406126
0.392722
0.353987
0.359713
0.456025
0.505208
0.389876
0.399474
0.34579
0.41511
0.39436
0.30785
0.404408
0.424399
0.403524
0.358101
0.4506
0.471269
0.389368
0.34343
0.428476
0.458648
0.333622
0.439215
0.331234
0.484977
0.397974
0.42536
0.410396
0.384495
0.446657
0.383957
0.390572
0.34635
0.534863
0.376764
0.371938
0.326655
0.366882
0.536148
0.360007
0.395097
0.351013
0.426039
0.271116
0.47689
0.352847
0.40915
0.419472
0.433422
0.397748
0.340084
0.366788
0.392533
0.424627
0.418142
0.434609
0.484122
0.396804
0.317484
0.382763
0.411833
0.529698
0.423261
0.356158
0.337128
0.362834
0.443283
0.404045
0.415834
0.445999
0.36681
0.401595
0.419691
0.502877
0.386685
0.409191
0.418511
0.432131
0.355696
0.364409
0.468957
0.402077
0.370268
0.484313
0.451444
0.381215
0.499796
0.423112
0.357224
0.403316
0.446714
0.405877
0.427775
0.395278
0.413761
0.441166
0.421286
0.43875
0.488038
0.441982
0.366787
0.39292
0.455346
0.521683
0.383822
0.368499
0.406797
0.345678
0.304319
0.491057
0.423073
0.415247
0.476602
0.407742
0.380497
0.437768
0.488071
0.386622
0.501538
0.361308
0.426116
0.393769
0.46418
0.424183
0.390775
0.330415
0.422043
0.32011
0.336404
0.451055
0.473778
0.397038
0.333332
0.365556
0.313798
0.382044
0.405793
0.390906
0.425056
0.457297
0.308952
0.354062
0.389588
0.361587
0.366653
0.398034
0.371705
0.381951
0.431891
0.332944
0.447521
0.345217
0.461008
0.403247
0.356361
0.374899
0.491808
0.279944
0.431055
0.430912
0.466356
0.348396
0.370321
0.418225
0.428112
0.390849
0.453475
0.430583
0.487688
0.379031
0.397524
0.385017
0.338653
0.380565
0.351747
0.344121
0.354574
0.42488
0.370055
0.415889
0.407048
0.43658
0.465046
0.38765
0.308477
0.369401
0.441182
0.384639
0.46863
0.393179
0.503794
0.407208
0.436883
0.399781
0.417053
0.460732
0.410131
0.365271
0.440453
0.431873
0.368325
0.411286
0.34167
0.354998
0.385461
0.3479
0.363115
0.357218
0.39064
0.437549
0.446908
0.398705
0.444711
0.35645
0.40224
0.427528
0.368087
0.343606
0.383596
0.3908
0.383456
0.291047
0.43078
0.417111
0.435963
0.408458
0.417839
0.446102
0.273181
0.363396
0.445759
0.391139
0.414988
0.426497
0.350645
0.345953
0.387087
0.37406
0.447432
0.380484
0.374442
0.324113
0.380443
0.357708
0.291054
0.43345
0.477944
0.36523
0.386815
0.419386
0.400707
0.330846
0.428424
0.419358
0.381481
0.332362
0.39986
0.360872
0.364858
0.435427
0.454686
0.420107
0.441067
0.36149
0.387339
0.313736
0.325312
0.409164
0.419197
0.414697
0.383293
0.37718
0.481032
0.320623
0.492398
0.473311
0.301754
0.405619
0.442186
0.473293
0.45898
0.34901
0.382396
0.490119
0.426606
0.351555
0.47515
0.339871
0.393766
0.374094
0.445998
0.35338
0.366393
0.44662
0.412278
0.451225
0.460852
0.433365
0.371092
0.390822
0.352453
0.438637
0.342185
0.402486
0.329694
0.361945
0.404128
0.374218
0.460348
0.455461
0.395686
0.464213
0.282675
0.380731
0.340375
0.347709
0.272603
0.447122
0.384803
0.399316
0.347017
0.34208
0.412385
0.420736
0.40049
0.348413
0.470753
0.411945
0.449055
0.457061
0.318181
0.413857
0.457007
0.413919
0.409133
0.46192
0.443829
0.392241
0.443313
0.370797
0.403738
0.280541
0.383119
0.371673
0.388131
0.36629
0.356981
0.394509
0.45408
0.342072
0.303329
0.492239
0.459878
0.3722
0.343611
0.361422
0.372255
0.350126
0.419768
0.43864
0.348165
0.45678
0.514331
0.429258
0.348013
0.424114
0.369183
0.311683
0.365027
0.464626
0.443667
0.4003
0.346764
0.353358
0.348401
0.327608
0.320013
0.363017
0.463267
0.545901
0.346965
0.357748
0.334185
0.503756
0.423769
0.388839
0.395518
0.351176
0.382583
0.467952
0.418506
0.380006
0.387115
0.406235
0.306683
0.405774
0.398306
0.382469
0.278257
0.435768
0.344774
0.406901
0.449654
0.469382
0.310007
0.336546
0.393501
0.347718
0.347053
0.458434
0.408653
0.352402
0.333718
0.428096
0.354054
0.402826
0.371871
0.353325
0.456465
0.520437
0.400518
0.357619
0.424254
0.388814
0.379077
0.362883
0.439794
0.431822
0.421516
0.510879
0.316716
0.409047
0.416055
0.476085
0.415098
0.34226
0.364931
0.412416
0.410447
0.398409
0.477377
0.38242
0.308933
0.378184
0.400114
0.287005
0.348425
0.33832
0.440086
0.375403
0.393991
0.415654
0.316442
0.438194
0.451742
0.449497
0.402486
0.479147
0.429071
0.384876
0.455708
0.363667
0.396755
0.405593
0.357945
0.492065
0.368062
0.507244
0.39458
0.443263
0.40924
0.328176
0.366949
0.363661
0.39676
0.369757
0.33437
0.379525
0.325569
0.448662
0.483022
0.368776
0.386946
0.46082
0.482778
0.479473
0.336077
0.44655
0.428318
0.370387
0.341606
0.407608
0.462221
0.35816
0.417509
0.42631
0.432518
0.450117
0.384866
0.46965
0.471583
0.404403
0.484013
0.358494
0.362092
0.518828
0.439042
0.387792
0.362431
0.34925
0.45123
0.334904
0.377368
0.411396
0.432989
0.382067
0.371292
0.347166
0.457618
0.453846
0.361809
0.406763
0.444266
0.368037
0.388236
0.300929
0.383819
0.344894
0.483987
0.370861
0.370289
0.372734
0.364305
0.416021
0.37278
0.425052
0.450925
0.443243
0.453622
0.364879
0.325923
0.324973
0.42523
0.448843
0.491616
0.424629
0.469066
0.469911
0.452372
0.461002
0.415272
0.421404
0.396175
0.386731
0.391879
0.411315
0.417607
0.437643
0.395312
0.397964
0.337457
0.367141
0.412057
0.411897
0.39317
0.389358
0.400923
0.385685
0.401793
0.470557
0.404937
0.403367
0.402732
0.4561
0.448368
0.442904
0.444622
0.355472
0.434015
0.439743
0.37197
0.371384
0.423958
0.403733
0.400083
0.489073
0.386437
0.338143
0.460652
0.421725
0.279665
0.447748
0.41655
0.245984
0.382314
0.38233
0.431122
0.385939
0.378798
0.46048
0.37712
0.445106
0.382578
0.441109
0.389737
0.428343
0.377758
0.479799
0.392233
0.556453
0.392765
0.450847
0.339445
0.473832
0.431657
0.281522
0.474528
0.383516
0.397155
0.43058
0.380034
0.432036
0.378001
0.433493
0.415716
0.36163
0.327142
0.389114
0.453058
0.388414
0.476932
0.406273
0.369914
0.486015
0.382552
0.42653
0.415775
0.375131
0.411135
0.430771
0.371797
0.487937
0.374154
0.41743
0.356049
0.406302
0.459344
0.427008
0.308252
0.440315
0.366845
0.333901
0.358854
0.439465
0.480834
0.467248
0.456453
0.341618
0.347518
0.34923
0.306863
0.360248
0.487313
0.411956
0.361674
0.324314
0.475209
0.443666
0.388774
0.421741
0.391886
0.296214
0.484369
0.348229
0.41966
0.431974
0.322188
0.423345
0.399603
0.495394
0.428229
0.434994
0.373984
0.387551
0.3473
0.301739
0.354634
0.385495
0.402405
0.407113
0.323832
0.390958
0.327605
0.4956
0.383514
0.492937
0.414043
0.44532
0.438818
0.415497
0.414306
0.315834
0.472458
0.34835
0.30621
0.411389
0.368986
0.389653
0.430053
0.369335
0.348008
0.418744
0.462864
0.404312
0.385516
0.389641
0.379457
0.434205
0.443832
0.389345
0.464607
0.417608
0.35845
0.432903
0.316528
0.471842
0.350524
0.428661
0.385531
0.375053
0.40867
0.425037
0.417711
0.574839
0.427413
0.321219
0.481357
0.444925
0.308479
0.497355
0.464943
0.359422
0.434965
0.413863
0.338069
0.400352
0.389874
0.431421
0.415523
0.339206
0.423288
0.406795
0.343846
0.313192
0.434145
0.29511
0.338635
0.456817
0.415484
0.388105
0.284327
0.392739
0.468838
0.515082
0.301481
0.314453
0.465426
0.325886
0.414458
0.432698
0.346064
0.407604
0.310162
0.455367
0.306833
0.441223
0.401355
0.488077
0.373475
0.411817
0.420979
0.418336
0.383924
0.407408
0.48836
0.415528
0.341981
0.384019
0.369234
0.413438
0.34879
0.375664
0.348107
0.397491
0.37946
0.414826
0.371055
0.370374
0.411736
0.455612
0.321669
0.412715
0.392864
0.311373
0.311772
0.408518
0.339121
0.419621
0.298509
0.444464
0.346037
0.333093
0.426147
0.375682
0.439341
0.396851
0.305136
0.406587
0.340965
0.383509
0.372689
0.416314
0.338347
0.399534
0.380312
0.296956
0.414941
0.441686
0.448576
0.439724
0.322113
0.508594
0.396887
0.406041
0.403852
0.441185
0.412753
0.318825
0.407246
0.414957
0.380956
0.348526
0.391436
0.422119
0.416082
0.358788
0.382333
0.428763
0.444899
0.447572
0.403425
0.391185
0.371162
0.430256
0.412963
0.443437
0.411224
0.50296
0.394233
0.395341
0.449558
0.409455
0.373747
0.414171
0.462192
0.359267
0.424064
0.481504
0.481774
0.341189
0.433256
0.441738
0.451287
0.399415
0.443963
0.352283
0.423479
0.35599
0.370216
0.473605
0.372107
0.295199
0.420458
0.366116
0.458598
0.416144
0.398154
0.391954
0.47809
0.3415
0.383417
0.441117
0.395421
0.471712
0.466886
0.3902
0.47603
0.315284
0.493445
0.349048
0.509733
0.372032
0.350376
0.429133
0.43018
0.374851
0.361715
0.387889
0.393696
0.385059
0.474744
0.399055
0.405921
0.326333
0.382509
0.542125
0.420873
0.414022
0.4431
0.422737
0.444777
0.423622
0.33788
0.458973
0.441656
0.391438
0.449936
0.460054
0.455626
0.333853
0.33214
0.361643
0.333803
0.440922
0.468666
0.439069
0.395604
0.429178
0.355349
0.354694
0.346602
0.370286
0.403503
0.436206
0.364466
0.412475
0.450151
0.434353
0.334482
0.465013
0.41015
0.334824
0.419304
0.450468
0.410945
0.383018
0.415756
0.336182
0.39516
0.392204
0.270117
0.384099
0.345671
0.408811
0.419956
0.441984
0.410003
0.427217
0.278821
0.351695
0.372773
0.438542
0.30239
0.314213
0.395978
0.420253
0.375391
0.39554
0.437656
0.420351
0.435449
0.417542
0.362429
0.410796
0.379279
0.446671
0.449559
0.380502
0.426008
0.373954
0.483198
0.384848
0.423597
0.386814
0.429622
0.388405
0.385335
0.365303
0.351257
0.403457
0.402924
0.363914
0.383775
0.330886
0.459469
0.337561
0.422059
0.362461
0.370258
0.329735
0.35438
0.462283
0.385903
0.406877
0.351996
0.384672
0.501558
0.381561
0.443735
0.47194
0.357993
0.498976
0.403211
0.432636
0.432428
0.431155
0.397791
0.355102
0.382388
0.468451
0.454026
0.466365
0.475803
0.363969
0.337881
0.444684
0.370954
0.438537
0.379129
0.364482
0.462214
0.311514
0.386262
0.344136
0.39264
0.433267
0.425166
0.381376
0.372803
0.444843
0.345227
0.452364
0.410038
0.451456
0.53828
0.349708
0.445543
0.409636
0.499502
0.407279
0.417998
0.336396
0.393941
0.360592
0.352343
0.435106
0.392129
0.457994
0.373995
0.393835
0.439807
0.445223
0.399633
0.363537
0.377712
0.478944
0.459244
0.444948
0.348923
0.37175
0.393983
0.380776
0.39144
0.36186
0.370439
0.413555
0.341099
0.363221
0.366489
0.332415
0.381487
0.42669
0.302258
0.308172
0.41198
0.355051
0.439819
0.440445
0.389875
0.40374
0.424965
0.426368
0.442129
0.425303
0.358958
0.427969
0.462192
0.391771
0.333068
0.368615
0.40345
0.408886
0.463481
0.36253
0.445675
0.413748
0.379728
0.394669
0.395502
0.346528
0.417519
0.280996
0.452672
0.383138
0.331798
0.385311
0.415007
0.41629
0.418234
0.362181
0.409098
0.434623
0.456923
0.332972
0.449543
0.271095
0.386133
0.418904
0.459273
0.338087
0.368586
0.344778
0.328348
0.411799
0.367327
0.442464
0.451301
0.401952
0.380987
0.409046
0.306664
0.418223
0.38548
0.436848
0.372066
0.448904
0.393999
0.379653
0.463618
0.391047
0.408251
0.410987
0.402405
0.478857
0.460348
0.402389
0.392113
0.401108
0.393133
0.396068
0.418121
0.525654
0.459723
0.434665
0.372555
0.323264
0.366463
0.424834
0.35554
0.291165
0.457409
0.417309
0.440537
0.405581
0.406335
0.401292
0.344328
0.458219
0.308565
0.394184
0.356516
0.394518
0.395632
0.415331
0.445515
0.413661
0.406772
0.405595
0.474607
0.368586
0.49194
0.425171
0.390649
0.347093
0.29394
0.37007
0.461306
0.379236
0.434173
0.330234
0.402603
0.31763
0.411734
0.378598
0.471834
0.346671
0.483004
0.443269
0.365006
0.39362
0.436667
0.410744
0.446551
0.348104
0.431836
0.385935
0.393902
0.336881
0.435807
0.359487
0.321154
0.372391
0.390742
0.381105
0.359035
0.423843
0.425442
0.339713
0.409376
0.416166
0.423757
0.385621
0.412766
0.403214
0.352974
0.397753
0.380791
0.412742
0.493137
0.339974
0.47157
0.371275
0.344808
0.444183
0.33486
0.450049
0.432502
0.3999
0.358203
0.3946
0.350128
0.400928
0.473366
0.476159
0.350515
0.362121
0.363109
0.363444
0.354557
0.425793
0.373544
0.429151
0.308385
0.467221
0.383356
0.305637
0.412229
0.422467
0.429246
0.404827
0.40524
0.343861
0.511605
0.421488
0.455632
0.403394
0.339624
0.362711
0.338523
0.516565
0.353365
0.378797
0.341927
0.324161
0.419637
0.411823
0.371218
0.434502
0.32212
0.395549
0.372963
0.427209
0.31532
0.455587
0.35683
0.368485
0.409527
0.365644
0.46435
0.335459
0.507202
0.50839
0.446416
0.403091
0.422466
0.356679
0.349505
0.449883
0.405332
0.369746
0.321335
0.469359
0.414823
0.40297
0.34714
0.417128
0.422226
0.43285
0.397039
0.38662
0.330947
0.415371
0.354792
0.391692
0.412781
0.370076
0.359319
0.347753
0.340788
0.297361
0.391733
0.421795
0.459836
0.469532
0.392916
0.412094
0.398358
0.538779
0.329186
0.442949
0.330183
0.319949
0.449002
0.443316
0.303937
0.372506
0.436334
0.379472
0.422941
0.380586
0.370027
0.365096
0.346986
0.37409
0.444267
0.44967
0.432604
0.399779
0.383132
0.390055
0.374523
0.433047
0.393553
0.381853
0.442056
0.368934
0.417535
0.408616
0.3558
0.415235
0.452493
0.334482
0.342525
0.464962
0.336021
0.431199
0.399085
0.417845
0.407501
0.390201
0.381378
0.478191
0.392442
0.405337
0.415714
0.44539
0.401204
0.514542
0.382564
0.403086
0.471057
0.356877
0.406044
0.425218
0.365822
0.305261
0.353261
0.398108
0.425727
0.406729
0.432451
0.380345
0.501135
0.353596
0.397896
0.258839
0.38213
0.415185
0.355501
0.424574
0.392453
0.36662
0.34551
0.451455
0.38638
0.388722
0.355402
0.336756
0.37638
0.381608
0.324433
0.367328
0.507231
0.373582
0.344932
0.393438
0.442871
0.452172
0.377671
0.372497
0.387914
0.438531
0.444926
0.355239
0.410001
0.371786
0.351393
0.391298
0.365145
0.274838
0.341254
0.369395
0.469466
0.356229
0.359985
0.46071
0.36831
0.26493
0.347284
0.346005
0.414689
0.40063
0.381752
0.404357
0.417042
0.49583
0.388349
0.443714
0.386601
0.40772
0.414626
0.407717
0.373941
0.426413
0.388184
0.444177
0.344261
0.373548
0.387355
0.42188
0.434252
0.334265
0.326034
0.362782
0.418814
0.438515
0.405143
0.42688
0.42765
0.360562
0.414176
0.410442
0.410418
0.411869
0.310025
0.378493
0.35978
0.449858
0.420725
0.441624
0.418266
0.417116
0.393707
0.35524
0.402064
0.3893
0.38064
0.400678
0.395229
0.369433
0.368348
0.376486
0.543378
0.446014
0.3746
0.486441
0.339552
0.311417
0.414066
0.434039
0.410009
0.264393
0.402702
0.455891
0.360395
0.401923
0.483081
0.346376
0.316296
0.476882
0.322463
0.358598
0.402716
0.406637
0.398612
0.451984
0.373641
0.420756
0.524732
0.376414
0.477594
0.397903
0.377452
0.466988
0.452475
0.407152
0.367641
0.412919
0.409362
0.351655
0.401712
0.388653
0.407946
0.350897
0.417489
0.357028
0.392751
0.351065
0.347835
0.425389
0.405536
0.443749
0.346071
0.422353
0.409301
0.459854
0.439666
0.414562
0.36637
0.392591
0.367492
0.414221
0.367523
0.3155
0.377982
0.422393
0.435358
0.496941
0.401809
0.379359
0.405939
0.438931
0.503764
0.431668
0.40539
0.411512
0.463229
0.424809
0.330439
0.477822
0.34183
0.429574
0.414404
0.397894
0.329356
0.373638
0.34174
0.348851
0.285215
0.374113
0.390554
0.36685
0.346646
0.399181
0.487548
0.402902
0.371411
0.464202
0.377328
0.433729
0.456734
0.45846
0.439843
0.486201
0.349537
0.419724
0.344532
0.377207
0.408484
0.410039
0.443278
0.387191
0.459977
0.380379
0.345574
0.39043
0.398365
0.378553
0.386705
0.44304
0.359846
0.482987
0.396141
0.356506
0.425529
0.448439
0.367926
0.461077
0.36965
0.394456
0.354264
0.44462
0.422346
0.408358
0.384857
0.39591
0.472845
0.40224
0.4821
0.387183
0.319346
0.326666
0.451771
0.39793
0.479328
0.26866
0.453142
0.38697
0.412034
0.371258
0.417749
0.309084
0.371231
0.424014
0.414258
0.408034
0.412151
0.354587
0.460732
0.410993
0.403572
0.363882
0.428235
0.411317
0.372598
0.440749
0.365798
0.388666
0.289133
0.309309
0.383239
0.355606
0.455181
0.444563
0.390763
0.459269
0.401618
0.477943
0.348977
0.477133
0.389813
0.358251
0.396592
0.351888
0.318909
0.465313
0.467488
0.386473
0.413786
0.37329
0.425472
0.487744
0.515464
0.469191
0.421855
0.420317
0.31945
0.420911
0.347541
0.399201
0.419965
0.398865
0.427368
0.434205
0.436727
0.298718
0.352806
0.309143
0.350143
0.408965
0.368901
0.419452
0.432876
0.384781
0.378707
0.498998
0.318887
0.467227
0.41199
0.40045
0.456854
0.467915
0.407417
0.36469
0.376038
0.3811
0.432353
0.406918
0.354908
0.375743
0.380395
0.408838
0.422567
0.407493
0.365877
0.446754
0.415062
0.410342
0.433792
0.444226
0.441938
0.438278
0.38554
0.405226
0.451997
0.40746
0.352872
0.32471
0.37807
0.313325
0.420331
0.374273
0.440214
0.372028
0.483673
0.324723
0.392902
0.404999
0.415768
0.485121
0.503043
0.425357
0.369916
0.402668
0.450896
0.507294
0.362767
0.420689
0.384581
0.332814
0.401505
0.350581
0.430231
0.41288
0.400093
0.37217
0.469318
0.432496
0.307808
0.379323
0.380341
0.31485
0.440484
0.415056
0.307367
0.473648
0.464076
0.481713
0.430711
0.352369
0.526331
0.319188
0.395258
0.490495
0.430317
0.395033
0.385886
0.402654
0.419702
0.431233
0.395565
0.360892
0.378552
0.420445
0.316478
0.412311
0.47587
0.429897
0.439841
0.45345
0.538623
0.438315
0.43836
0.417767
0.468475
0.331569
0.438951
0.488302
0.364223
0.337057
0.359507
0.322562
0.401083
0.292339
0.3342
0.388263
0.45265
0.426268
0.396438
0.421021
0.373507
0.41047
0.424199
0.445717
0.361373
0.311901
0.49079
0.374052
0.371106
0.443561
0.376799
0.474989
0.408341
0.43075
0.295655
0.495093
0.335074
0.28938
0.326635
0.378519
0.394535
0.473736
0.377629
0.370799
0.440704
0.401836
0.473108
0.403233
0.434169
0.368772
0.290452
0.429952
0.334659
0.368039
0.393352
0.435433
0.352866
0.31717
0.372643
0.367244
0.337943
0.395265
0.376175
0.379009
0.349741
0.370681
0.3759
0.468056
0.396678
0.444541
0.342224
0.348063
0.399625
0.421936
0.386785
0.419687
0.387193
0.522324
0.408979
0.370849
0.409042
0.347697
0.404303
0.290842
0.401928
0.345463
0.389579
0.45386
0.377355
0.385302
0.3494
0.388016
0.456722
0.396855
0.439854
0.411141
0.433059
0.356319
0.429723
0.420411
0.409359
0.471716
0.418644
0.324307
0.389595
0.427403
0.434991
0.379077
0.461157
0.445171
0.348952
0.324138
0.479622
0.489022
0.399366
0.424012
0.434162
0.410934
0.329347
0.388437
0.398092
0.433351
0.363852
0.488911
0.393985
0.459404
0.382682
0.296264
0.446543
0.391709
0.412444
0.387027
0.398719
0.407476
0.348091
0.360882
0.435055
0.326132
0.459872
0.437141
0.428779
0.372484
0.367557
0.400996
0.399935
0.33676
0.343935
0.343525
0.376501
0.440454
0.368408
0.336868
0.363543
0.354764
0.298224
0.363664
0.313738
0.392999
0.320426
0.357809
0.37472
0.368032
0.384532
0.369864
0.476687
0.325372
0.407877
0.398879
0.39864
0.449908
0.421985
0.438663
0.386614
0.43969
0.414124
0.332412
0.445345
0.378181
0.453165
0.30145
0.385579
0.402859
0.388817
0.518682
0.411719
0.43238
0.47437
0.447394
0.485186
0.4423
0.443533
0.397878
0.415216
0.366673
0.367416
0.444042
0.412031
0.390479
0.358165
0.454465
0.413205
0.422727
0.431012
0.390755
0.39326
0.36867
0.417205
0.374595
0.451773
0.484253
0.444533
0.408995
0.425429
0.471281
0.342413
0.377646
0.397332
0.34213
0.318981
0.434054
0.355695
0.345237
0.422689
0.424511
0.386975
0.38004
0.46706
0.346531
0.411322
0.37424
0.39602
0.41054
0.483203
0.279597
0.420986
0.459587
0.365231
0.436262
0.407588
0.371203
0.401525
0.438802
0.373398
0.422597
0.341544
0.383827
0.460557
0.337766
0.347185
0.412679
0.347683
0.472574
0.44124
0.356775
0.435157
0.479818
0.367257
0.441404
0.339039
0.435016
0.410704
0.397448
0.512743
0.401082
0.359259
0.402548
0.412504
0.330189
0.449503
0.369957
0.378539
0.32161
0.445673
0.435749
0.433493
0.424132
0.40904
0.320961
0.371229
0.32696
0.359899
0.373624
0.376804
0.361362
0.414753
0.308488
0.402659
0.407881
0.418373
0.390417
0.36829
0.474376
0.404881
0.339587
0.485891
0.390285
0.38322
0.414493
0.420287
0.437012
0.417876
0.521504
0.42594
0.50844
0.484527
0.4219
0.437398
0.415465
0.379167
0.422974
0.54067
0.44925
0.448468
0.369363
0.452194
0.43471
0.424884
0.444194
0.323899
0.389766
0.357636
0.464617
0.288502
0.38822
0.337781
0.363267
0.364308
0.385441
0.364469
0.4334
0.504654
0.438415
0.367207
0.414466
0.361164
0.468133
0.448265
0.39919
0.449239
0.445904
0.326899
0.413094
0.439979
0.36385
0.429617
0.315637
0.391389
0.384917
0.339459
0.446046
0.41518
0.373145
0.379539
0.33369
0.453156
0.398002
0.388084
0.320948
0.459907
0.456181
0.374797
0.366914
0.416328
0.396202
0.421597
0.349854
0.415865
0.432959
0.502891
0.355487
0.369522
0.434252
0.428223
0.346855
0.391424
0.329467
0.395244
0.549021
0.422702
0.30573
0.43522
0.364419
0.421029
0.374765
0.352066
0.423842
0.387695
0.447441
0.395519
0.417494
0.424644
0.328118
0.386096
0.447707
0.397484
0.412957
0.320383
0.355449
0.451058
0.420524
0.308094
0.393511
0.390486
0.436329
0.350808
0.436123
0.540215
0.438842
0.529733
0.42879
0.469411
0.356954
0.335648
0.425595
0.536739
0.383759
0.376974
0.443641
0.507079
0.369799
0.412417
0.404106
0.352295
0.306897
0.330912
0.35297
0.371715
0.42844
0.494586
0.429744
0.40785
0.386445
0.414177
0.375459
0.353503
0.384406
0.331886
0.336914
0.428273
0.381825
0.328788
0.411334
0.359559
0.428389
0.416325
0.362996
0.384157
0.406605
0.391063
0.43842
0.448969
0.333985
0.362998
0.392094
0.378932
0.36632
0.388596
0.419011
0.320964
0.400517
0.413699
0.44014
0.341002
0.454204
0.503939
0.341257
0.369186
0.343101
0.457155
0.445941
0.40577
0.44235
0.367576
0.37938
0.435724
0.428399
0.373611
0.398281
0.378393
0.454322
0.437831
0.41159
0.455713
0.390185
0.43503
0.346655
0.460063
0.382006
0.28781
0.454203
0.317992
0.38542
0.40165
0.440459
0.378748
0.369276
0.491084
0.387184
0.388059
0.40607
0.447991
0.291889
0.353302
0.493927
0.339869
0.407625
0.359176
0.442777
0.325392
0.345391
0.369161
0.496054
0.301563
0.373471
0.487602
0.332248
0.441597
0.520298
0.442578
0.438527
0.35777
0.346367
0.354475
0.335808
0.400695
0.366804
0.393165
0.397348
0.340535
0.315847
0.320247
0.481123
0.383121
0.360547
0.387503
0.429542
0.38309
0.368441
0.398185
0.425911
0.434819
0.420318
0.368942
0.358679
0.447106
0.357291
0.423402
0.456158
0.461287
0.34936
0.45698
0.366213
0.358969
0.354541
0.426102
0.302225
0.434931
0.396192
0.424702
0.348485
0.272155
0.451783
0.41459
0.419644
0.415113
0.363571
0.432654
0.36142
0.336266
0.365525
0.439411
0.396532
0.543689
0.416568
0.413802
0.421852
0.4021
0.457156
0.513086
0.46034
0.435636
0.3758
0.274611
0.409853
0.457438
0.41989
0.356606
0.502498
0.382441
0.43822
0.423646
0.400032
0.493719
0.352691
0.409274
0.345601
0.370698
0.39904
0.394443
0.388066
0.41326
0.412041
0.389771
0.486432
0.368037
0.454375
0.377329
0.360567
0.395772
0.342868
0.445762
0.349424
0.344056
0.364487
0.416899
0.405299
0.434393
0.363503
0.405939
0.377238
0.476435
0.355227
0.448767
0.39865
0.429775
0.388973
0.316753
0.374944
0.39201
0.396557
0.483914
0.364105
0.360506
0.380098
0.340788
0.409443
0.354616
0.399553
0.491796
0.424923
0.342891
0.407457
0.428273
0.342066
0.510625
0.402407
0.404699
0.387722
0.429356
0.36763
0.426703
0.362171
0.45117
0.348723
0.456832
0.370714
0.361422
0.372418
0.445532
0.359552
0.403027
0.466285
0.281818
0.357966
0.462063
0.269055
0.3832
0.445698
0.453128
0.273189
0.36724
0.313927
0.350449
0.45961
0.330514
0.427782
0.392314
0.440765
0.384567
0.460718
0.31724
0.349961
0.460673
0.287279
0.430591
0.485006
0.408985
0.43143
0.411831
0.454462
0.388824
0.53602
0.491914
0.449781
0.451999
0.430386
0.477669
0.390366
0.350177
0.351772
0.456027
0.346293
0.315892
0.304241
0.353927
0.469674
0.497346
0.462999
0.300124
0.340115
0.355608
0.398335
0.413671
0.361936
0.473119
0.441961
0.454419
0.379408
0.400143
0.367839
0.533424
0.416359
0.411767
0.382689
0.473827
0.444676
0.438742
0.400475
0.450725
0.403226
0.450543
0.381806
0.324716
0.419205
0.455532
0.393522
0.361338
0.318804
0.429789
0.391354
0.466424
0.387759
0.486951
0.379261
0.36115
0.346587
0.489138
0.475243
0.347806
0.363565
0.468482
0.437638
0.422731
0.400474
0.310607
0.473112
0.4163
0.405402
0.39247
0.419288
0.474052
0.394447
0.296538
0.400825
0.408803
0.402762
0.390173
0.411525
0.34988
0.492067
0.38086
0.443481
0.366653
0.433059
0.41761
0.411771
0.378924
0.458402
0.397127
0.381892
0.407786
0.335423
0.375356
0.468445
0.359179
0.292104
0.333529
0.359986
0.402473
0.430894
0.449436
0.384541
0.388222
0.359517
0.326495
0.354933
0.488075
0.290336
0.289822
0.344055
0.376503
0.36126
0.36393
0.326518
0.450906
0.40708
0.475325
0.28488
0.43554
0.392122
0.424747
0.305791
0.328556
0.415861
0.450011
0.365258
0.367724
0.315466
0.365976
0.325869
0.410711
0.463454
0.397177
0.359863
0.443588
0.385114
0.454783
0.348426
0.366243
0.376425
0.383332
0.434677
0.446033
0.393213
0.335245
0.380405
0.388452
0.426836
0.477323
0.384114
0.326957
0.400992
0.374111
0.423743
0.410793
0.478288
0.468197
0.308975
0.437001
0.426245
0.455362
0.360749
0.366193
0.409712
0.415299
0.514383
0.345836
0.437169
0.375875
0.450225
0.420984
0.410868
0.414549
0.337253
0.42485
0.381785
0.38974
0.392845
0.396256
0.360464
0.398868
0.454734
0.369289
0.335918
0.445831
0.456655
0.409522
0.412841
0.373904
0.402478
0.406162
0.439068
0.497502
0.419743
0.379556
0.433011
0.375484
0.393967
0.524183
0.377303
0.386208
0.418177
0.362261
0.481736
0.460308
0.418591
0.304594
0.315656
0.424009
0.403849
0.372673
0.397696
0.449851
0.39209
0.417957
0.448385
0.398392
0.434572
0.449522
0.409501
0.35525
0.360427
0.360231
0.369424
0.425344
0.375762
0.441311
0.376311
0.401294
0.350202
0.406878
0.474792
0.41025
0.423319
0.401092
0.44512
0.406258
0.348193
0.373132
0.329818
0.48874
0.364473
0.407161
0.442659
0.371894
0.405693
0.471196
0.469988
0.404808
0.499166
0.461365
0.411066
0.42107
0.381612
0.341536
0.329776
0.382871
0.398466
0.443255
0.401852
0.373062
0.338777
0.316712
0.374881
0.367318
0.439763
0.358435
0.386356
0.36516
0.340593
0.495159
0.403339
0.484372
0.539106
0.447984
0.344194
0.337971
0.414169
0.372772
0.411765
0.338878
0.428887
0.426351
0.479041
0.434794
0.349038
0.421207
0.451584
0.464378
0.403791
0.350936
0.42167
0.422261
0.440568
0.439826
0.338889
0.383877
0.355995
0.4484
0.421875
0.353626
0.352705
0.536898
0.486266
0.368027
0.384896
0.489695
0.413804
0.329379
0.331958
0.367125
0.363753
0.341162
0.333651
0.408616
0.357313
0.395437
0.37389
0.483277
0.363479
0.458903
0.37684
0.434099
0.415952
0.325637
0.31641
0.439829
0.300199
0.412841
0.418886
0.35669
0.415194
0.347073
0.401581
0.441202
0.490015
0.40555
0.432601
0.518934
0.42206
0.403169
0.435681
0.408672
0.340693
0.364128
0.426665
0.405208
0.429849
0.335144
0.332076
0.376396
0.363358
0.380608
0.30832
0.450277
0.42114
0.390722
0.504696
0.405128
0.408073
0.408432
0.436672
0.406362
0.427127
0.375462
0.433442
0.384011
0.540462
0.411451
0.309746
0.418782
0.382367
0.454131
0.417228
0.363812
0.397016
0.40471
0.351218
0.317783
0.46901
0.453055
0.312072
0.336564
0.452612
0.520718
0.401217
0.368077
0.436428
0.394408
0.395657
0.343224
0.425627
0.439898
0.353706
0.342471
0.456106
0.374972
0.30352
0.437862
0.384631
0.292659
0.280254
0.375839
0.337062
0.366941
0.382701
0.410408
0.407653
0.415405
0.468402
0.31005
0.441815
0.396794
0.412291
0.377989
0.442595
0.400995
0.382307
0.372492
0.398902
0.469277
0.394168
0.391271
0.477539
0.308472
0.411453
0.537481
0.404231
0.414529
0.438406
0.469034
0.337728
0.33759
0.352539
0.326083
0.39928
0.322167
0.299193
0.43632
0.535182
0.410511
0.392119
0.498232
0.416529
0.420951
0.483114
0.416776
0.406696
0.47028
0.415418
0.365286
0.417033
0.327311
0.390804
0.411164
0.343006
0.412241
0.423004
0.422834
0.390638
0.382657
0.385352
0.392461
0.375319
0.409609
0.399497
0.395838
0.362123
0.352207
0.399217
0.333658
0.394833
0.352704
0.310289
0.361373
0.447671
0.359277
0.268113
0.411748
0.380026
0.406878
0.377106
0.322538
0.477347
0.322826
0.459856
0.388861
0.430019
0.386561
0.39812
0.482449
0.387975
0.342709
0.447892
0.378806
0.448283
0.290825
0.293803
0.344146
0.276506
0.386684
0.399426
0.361881
0.360076
0.40018
0.495473
0.463848
0.36929
0.406727
0.414825
0.394308
0.361522
0.419953
0.405637
0.352087
0.406626
0.280275
0.339009
0.378193
0.468819
0.361165
0.445218
0.454724
0.506215
0.424321
0.454122
0.270495
0.442627
0.374402
0.379823
0.412158
0.34351
0.353193
0.351119
0.49052
0.436816
0.463779
0.502625
0.354686
0.540648
0.373831
0.384298
0.370741
0.444317
0.385764
0.460677
0.430338
0.4002
0.450996
0.437818
0.352769
0.343332
0.391108
0.334697
0.423151
0.352087
0.367613
0.383403
0.442393
0.366506
0.367511
0.410753
0.438347
0.373014